LAMMPS data file via write_data, version 3 Mar 2020, timestep = 1000000

2342 atoms
20 atom types
45 bonds
1 bond types

0 400 xlo xhi
0 400 ylo yhi
0 400 zlo zhi

Masses

1 71.08
2 103.1
3 115.1
4 129.1
5 147.2
6 57.05
7 137.1
8 113.2
9 128.2
10 113.2
11 131.2
12 114.1
13 97.12
14 128.1
15 156.2
16 87.08
17 101.1
18 99.07
19 186.2
20 163.2

Atoms

	   1	1	6	0.0	43.4	166.39	222.85
	   2	1	15	1.0	40.76	168.98	223.05
	   3	1	10	0.0	38.96	168.1	226.3
	   4	1	13	0.0	41.11	168.4	229.33
	   5	1	1	0.0	42.03	165.68	231.95
	   6	1	2	0.0	40.13	164.87	235.15
	   7	1	18	0.0	41.93	165.54	238.45
	   8	1	18	0.0	40.99	163.97	241.8
	   9	1	3	-1.0	42.77	164.45	245.18
	  10	1	2	0.0	41.26	161.98	247.67
	  11	1	6	0.0	41.86	162.91	251.3
	  12	1	17	0.0	40.7	161.62	254.68
	  13	1	6	0.0	38.15	164.38	255.15
	  14	1	20	0.0	37.63	165.95	251.74
	  15	1	17	0.0	37.89	164.85	248.11
	  16	1	9	1.0	38.75	167.67	245.71
	  17	1	10	0.0	37.7	167.0	242.14
	  18	1	6	0.0	37.49	168.87	238.84
	  19	1	20	0.0	39.08	169.35	235.44
	  20	1	1	0.0	42.73	170.2	234.72
	  21	1	6	0.0	43.44	173.79	233.68
	  22	1	12	0.0	41.3	175.24	236.44
	  23	1	17	0.0	42.48	177.18	239.39
	  24	1	4	-1.0	40.41	175.25	241.91
	  25	1	13	0.0	38.49	171.92	241.92
	  26	1	14	0.0	34.89	172.18	240.68
	  27	1	5	0.0	33.68	170.44	243.84
	  28	1	8	0.0	34.88	169.9	247.41
	  29	1	8	0.0	32.63	167.2	249.05
	  30	1	13	0.0	33.01	165.23	252.27
	  31	1	16	0.0	34.83	161.91	251.68
	  32	1	2	0.0	32.01	159.76	253.0
	  33	1	8	0.0	29.41	157.55	251.4
	  34	1	1	0.0	25.99	156.59	252.78
	  35	1	8	0.0	24.63	153.09	252.21
	  36	1	9	1.0	22.03	150.67	253.57
	  37	1	4	-1.0	22.17	149.24	257.09
	  38	1	16	0.0	21.04	145.65	256.55
	  39	1	1	0.0	23.86	144.56	254.25
	  40	1	18	0.0	23.1	139.25	251.57
	  41	1	11	0.0	21.19	141.95	249.69
	  42	1	9	1.0	19.87	141.54	246.14
	  43	1	6	0.0	17.95	143.72	243.68
	  44	1	18	0.0	19.86	146.86	242.67
	  45	1	3	-1.0	20.66	147.94	246.21
	  46	1	3	-1.0	24.32	148.29	245.28
	  47	1	10	0.0	23.24	151.3	243.21
	  48	1	3	-1.0	21.62	152.76	246.34
	  49	1	5	0.0	24.05	155.3	247.85
	  50	1	5	0.0	24.29	159.1	248.24
	  51	1	8	0.0	27.47	161.21	248.49
	  52	1	6	0.0	28.79	164.34	250.27
	  53	1	3	-1.0	26.48	166.75	252.06
	  54	1	4	-1.0	23.2	165.08	251.01
	  55	1	1	0.0	24.35	162.02	252.98
	  56	1	8	0.0	25.7	163.65	256.14
	  57	1	4	-1.0	22.34	163.12	257.84
	  58	1	9	1.0	20.45	160.75	255.54
	  59	1	13	0.0	17.5	159.29	257.47
	  60	1	17	0.0	17.71	155.56	256.69
	  61	1	20	0.0	21.37	155.28	255.54
	  62	1	1	0.0	24.66	154.5	257.31
	  63	1	17	0.0	27.39	157.05	256.66
	  64	1	9	1.0	30.72	155.31	255.98
	  65	1	19	0.0	34.19	156.89	255.72
	  66	1	13	0.0	36.23	154.72	253.34
	  67	1	8	0.0	39.48	156.7	253.67
	  68	1	15	1.0	41.44	156.48	256.93
	  69	1	7	0.5	44.64	158.48	257.68
	  70	1	6	0.0	45.21	159.22	253.97
	  71	1	8	0.0	45.12	155.55	252.93
	  72	1	18	0.0	42.22	153.63	251.36
	  73	1	4	-1.0	40.69	151.01	253.65
	  74	1	3	-1.0	37.71	149.81	251.64
	  75	1	19	0.0	38.18	149.4	247.91
	  76	1	3	-1.0	34.56	148.39	247.16
	  77	1	10	0.0	33.38	151.72	248.59
	  78	1	11	0.0	36.23	153.74	247.07
	  79	1	4	-1.0	35.11	151.91	243.82
	  80	1	15	1.0	31.57	153.31	244.08
	  81	1	5	0.0	32.64	156.75	245.28
	  82	1	11	0.0	34.52	157.02	241.96
	  83	1	4	-1.0	31.44	155.97	240.0
	  84	1	14	0.0	29.55	159.12	241.08
	  85	1	18	0.0	32.59	161.41	240.97
	  86	1	8	0.0	32.88	160.55	237.29
	  87	1	5	0.0	29.21	160.24	236.27
	  88	1	9	1.0	27.28	162.51	238.69
	  89	1	20	0.0	29.66	165.4	239.4
	  90	1	10	0.0	32.3	165.53	236.65
	  91	1	15	1.0	29.95	164.12	234.01
	  92	1	1	0.0	33.06	162.97	232.18
	  93	1	4	-1.0	32.73	160.16	229.67
	  94	1	13	0.0	35.56	158.31	231.42
	  95	1	4	-1.0	36.73	156.7	228.17
	  96	1	3	-1.0	37.48	160.21	226.75
	  97	1	7	0.5	39.63	161.57	229.62
	  98	1	20	0.0	43.06	160.92	231.05
	  99	1	5	0.0	42.92	160.96	234.88
	 100	1	10	0.0	45.27	162.23	237.56
	 101	1	10	0.0	44.85	160.59	240.95
	 102	1	17	0.0	46.9	161.33	244.06
	 103	1	4	-1.0	48.39	158.94	246.62
	 104	1	13	0.0	49.55	159.3	250.26
	 105	1	13	0.0	53.3	159.64	250.36
	 106	1	10	0.0	54.06	156.22	251.93
	 107	1	12	0.0	51.47	154.25	249.96
	 108	1	17	0.0	53.31	150.97	249.16
	 109	1	13	0.0	53.43	148.97	245.86
	 110	1	4	-1.0	50.46	146.86	247.02
	 111	1	12	0.0	48.2	149.92	247.43
	 112	1	15	1.0	48.56	152.46	244.58
	 113	1	4	-1.0	48.57	149.53	242.13
	 114	1	20	0.0	45.27	148.4	243.69
	 115	1	17	0.0	43.65	151.69	242.68
	 116	1	1	0.0	44.97	151.54	239.18
	 117	1	4	-1.0	43.09	148.36	238.27
	 118	1	8	0.0	39.64	149.34	239.41
	 119	1	11	0.0	39.83	152.32	237.05
	 120	1	5	0.0	41.52	150.64	234.08
	 121	1	4	-1.0	38.97	147.84	234.12
	 122	1	16	0.0	35.81	149.4	235.39
	 123	1	5	0.0	35.96	152.92	234.01
	 124	1	12	0.0	38.04	152.14	230.86
	 125	1	18	0.0	40.13	155.3	231.21
	 126	1	13	0.0	42.57	155.8	228.29
	 127	1	6	0.0	45.3	157.07	230.6
	 128	1	10	0.0	46.2	157.26	234.27
	 129	1	20	0.0	48.78	159.06	236.38
	 130	1	8	0.0	49.08	158.49	240.12
	 131	1	1	0.0	50.85	161.56	241.55
	 132	1	18	0.0	52.54	162.44	244.87
	 133	1	14	0.0	51.67	165.35	247.23
	 134	1	1	0.0	55.29	165.95	248.24
	 135	1	18	0.0	56.02	167.57	244.88
	 136	1	10	0.0	52.61	169.08	244.04
	 137	1	1	0.0	52.59	171.4	247.08
	 138	1	10	0.0	56.14	172.49	246.28
	 139	1	1	0.0	55.03	173.31	242.74
	 140	1	1	0.0	52.0	175.26	243.99
	 141	1	16	0.0	54.28	177.48	246.07
	 142	1	19	0.0	56.42	178.71	243.16
	 143	1	17	0.0	53.7	181.31	242.61
	 144	1	16	0.0	55.44	183.41	245.27
	 145	1	15	1.0	59.24	183.61	244.7
	 146	1	14	0.0	59.75	182.74	241.0
	 147	1	18	0.0	62.15	185.68	240.43
	 148	1	6	0.0	64.04	183.75	243.3
	 149	1	4	-1.0	64.34	180.14	242.15
	 150	1	15	1.0	62.34	177.06	241.17
	 151	1	17	0.0	63.53	173.77	242.68
	 152	1	10	0.0	61.89	170.64	244.08
	 153	1	17	0.0	64.06	170.59	247.19
	 154	1	6	0.0	62.41	171.55	250.47
	 155	1	17	0.0	60.63	170.47	253.64
	 156	1	18	0.0	56.84	170.16	253.36
	 157	1	8	0.0	54.33	170.41	256.23
	 158	1	3	-1.0	51.16	168.71	254.91
	 159	1	16	0.0	48.5	169.3	257.56
	 160	1	6	0.0	44.92	168.2	256.87
	 161	1	3	-1.0	42.1	166.51	258.76
	 162	1	6	0.0	43.7	163.12	259.34
	 163	1	18	0.0	47.42	163.42	259.6
	 164	1	17	0.0	50.15	166.06	259.88
	 165	1	7	0.5	53.41	165.02	258.17
	 166	1	18	0.0	56.8	166.63	257.79
	 167	1	8	0.0	58.24	165.53	254.43
	 168	1	13	0.0	61.76	166.39	253.25
	 169	1	18	0.0	62.2	166.37	249.46
	 170	1	1	0.0	65.44	166.58	247.44
	 171	1	4	-1.0	65.29	167.25	243.66
	 172	1	6	0.0	62.21	165.19	242.8
	 173	1	20	0.0	61.89	162.1	245.04
	 174	1	18	0.0	61.03	161.76	248.58
	 175	1	8	0.0	63.55	160.41	251.12
	 176	1	6	0.0	61.24	158.0	252.93
	 177	1	16	0.0	63.48	157.53	255.95
	 178	1	2	0.0	63.43	160.96	257.61
	 179	1	8	0.0	59.66	161.56	257.38
	 180	1	9	1.0	58.12	162.36	260.79
	 181	1	7	0.5	54.39	162.62	261.54
	 182	1	8	0.0	52.53	164.5	264.27
	 183	1	13	0.0	49.33	163.23	266.0
	 184	1	8	0.0	47.93	166.77	265.81
	 185	1	1	0.0	45.64	167.42	262.84
	 186	1	6	0.0	42.24	169.46	261.91
	 187	1	15	1.0	39.84	167.06	263.61
	 188	1	3	-1.0	41.85	167.16	266.84
	 189	1	8	0.0	41.67	170.94	266.97
	 190	1	17	0.0	37.93	170.89	266.25
	 191	1	20	0.0	37.53	168.31	269.02
	 192	1	5	0.0	39.56	170.34	271.55
	 193	1	8	0.0	37.67	173.55	270.69
	 194	1	14	0.0	34.36	171.7	271.04
	 195	1	14	0.0	35.59	170.58	274.46
	 196	1	10	0.0	36.35	174.14	275.63
	 197	1	10	0.0	32.88	175.25	274.52
	 198	1	15	1.0	31.03	172.55	276.54
	 199	1	3	-1.0	33.02	173.5	279.63
	 200	1	15	1.0	31.96	177.17	279.28
	 201	1	4	-1.0	29.09	177.87	276.87
	 202	1	18	0.0	25.48	176.74	276.91
	 203	1	6	0.0	22.7	177.1	274.33
	 204	1	8	0.0	24.56	175.14	271.64
	 205	1	13	0.0	22.33	172.27	270.5
	 206	1	13	0.0	24.25	168.99	271.1
	 207	1	4	-1.0	23.73	167.99	267.45
	 208	1	14	0.0	25.59	171.1	266.24
	 209	1	16	0.0	28.46	171.09	268.75
	 210	1	10	0.0	31.04	170.02	266.15
	 211	1	4	-1.0	29.5	172.31	263.53
	 212	1	17	0.0	29.97	175.29	265.83
	 213	1	1	0.0	33.45	174.19	266.93
	 214	1	9	1.0	34.53	173.91	263.29
	 215	1	1	0.0	33.1	177.37	262.52
	 216	1	18	0.0	34.84	178.88	265.56
	 217	1	9	1.0	38.03	177.1	264.47
	 218	1	4	-1.0	37.84	177.62	260.71
	 219	1	15	1.0	36.47	181.16	261.01
	 220	1	20	0.0	38.41	182.72	263.91
	 221	1	16	0.0	41.43	181.26	265.65
	 222	1	20	0.0	44.8	182.77	265.02
	 223	1	18	0.0	48.18	182.01	266.46
	 224	1	2	0.0	49.61	184.48	269.03
	 225	1	13	0.0	53.19	185.53	269.79
	 226	1	3	-1.0	52.96	184.85	273.55
	 227	1	10	0.0	50.22	183.06	275.52
	 228	1	18	0.0	49.98	184.99	278.78
	 229	1	9	1.0	50.11	188.37	277.02
	 230	1	4	-1.0	47.09	187.25	274.95
	 231	1	5	0.0	45.05	186.07	277.96
	 232	1	12	0.0	46.11	189.39	279.49
	 233	1	9	1.0	44.7	191.29	276.46
	 234	1	20	0.0	41.46	189.35	276.82
	 235	1	3	-1.0	41.15	190.0	280.57
	 236	1	17	0.0	42.35	193.64	280.25
	 237	1	3	-1.0	40.35	194.64	277.19
	 238	1	6	0.0	37.83	191.82	276.8
	 239	1	16	0.0	35.0	193.4	274.84
	 240	1	9	1.0	37.38	194.45	272.07
	 241	1	19	0.0	38.42	190.83	271.54
	 242	1	8	0.0	35.45	188.57	272.48
	 243	1	9	1.0	33.34	188.29	269.32
	 244	1	14	0.0	29.81	186.96	269.23
	 245	1	20	0.0	28.39	184.39	266.86
	 246	1	17	0.0	24.73	183.48	266.56
	 247	1	6	0.0	23.74	180.24	264.88
	 248	1	8	0.0	20.34	178.78	264.1
	 249	1	12	0.0	18.99	175.84	266.09
	 250	1	1	0.0	18.25	173.19	263.44
	 251	1	8	0.0	15.19	171.76	265.2
	 252	1	16	0.0	13.52	174.89	266.7
	 253	1	9	1.0	14.86	177.31	264.03
	 254	1	9	1.0	15.48	179.99	266.65
	 255	1	4	-1.0	18.85	181.53	267.18
	 256	1	5	0.0	21.43	180.49	269.73
	 257	1	16	0.0	24.54	182.55	270.5
	 258	1	8	0.0	27.81	182.04	272.34
	 259	1	3	-1.0	30.89	183.97	273.43
	 260	1	18	0.0	34.13	183.42	271.46
	 261	1	6	0.0	37.47	183.96	273.19
	 262	1	20	0.0	39.79	181.54	274.86
	 263	1	4	-1.0	39.44	179.06	271.98
	 264	1	15	1.0	40.87	181.43	269.32
	 265	1	5	0.0	44.6	181.14	270.06
	 266	1	10	0.0	44.58	177.92	272.14
	 267	1	6	0.0	43.26	175.73	269.33
	 268	1	13	0.0	46.19	176.19	266.93
	 269	1	4	-1.0	48.63	176.3	269.86
	 270	1	8	0.0	48.43	172.51	270.2
	 271	1	5	0.0	50.71	172.3	267.13
	 272	1	5	0.0	53.37	173.99	269.3
	 273	1	7	0.5	52.33	172.35	272.6
	 274	1	13	0.0	50.72	169.01	271.65
	 275	1	4	-1.0	50.67	167.91	275.29
	 276	1	5	0.0	47.62	170.22	275.71
	 277	1	1	0.0	45.38	167.63	274.02
	 278	1	12	0.0	47.76	164.64	273.64
	 279	1	13	0.0	49.03	162.33	276.42
	 280	1	3	-1.0	51.31	160.26	274.15
	 281	1	5	0.0	53.13	163.15	272.4
	 282	1	17	0.0	54.85	166.32	273.6
	 283	1	14	0.0	57.36	167.47	270.95
	 284	1	13	0.0	56.51	170.91	269.44
	 285	1	8	0.0	56.26	171.13	265.65
	 286	1	16	0.0	59.25	173.52	265.44
	 287	1	4	-1.0	61.45	170.83	267.05
	 288	1	18	0.0	60.03	168.07	264.86
	 289	1	18	0.0	60.98	170.06	261.73
	 290	1	3	-1.0	64.47	170.79	263.09
	 291	1	4	-1.0	64.95	167.13	263.98
	 292	1	18	0.0	63.87	165.88	260.53
	 293	1	8	0.0	66.22	168.27	258.76
	 294	1	14	0.0	69.27	167.31	260.84
	 295	1	12	0.0	68.43	163.61	260.17
	 296	1	2	0.0	68.75	164.41	256.45
	 297	1	13	0.0	72.12	164.45	254.62
	 298	1	8	0.0	74.63	167.25	255.42
	 299	1	3	-1.0	74.74	168.85	251.98
	 300	1	18	0.0	70.91	169.19	251.65
	 301	1	15	1.0	70.01	170.74	255.05
	 302	1	15	1.0	70.54	174.4	254.2
	 303	1	13	0.0	68.33	174.05	251.06
	 304	1	10	0.0	65.67	172.25	253.16
	 305	1	20	0.0	65.83	174.97	255.82
	 306	1	9	1.0	65.28	177.85	253.39
	 307	1	12	0.0	62.3	176.26	251.61
	 308	1	8	0.0	59.89	174.99	254.23
	 309	1	18	0.0	56.62	174.91	252.25
	 310	1	10	0.0	53.19	174.74	253.9
	 311	1	16	0.0	50.47	172.46	252.48
	 312	1	6	0.0	46.91	171.62	253.44
	 313	1	6	0.0	43.95	173.1	255.27
	 314	1	16	0.0	45.31	172.96	258.83
	 315	1	17	0.0	48.21	175.25	257.84
	 316	1	11	0.0	45.93	178.13	257.12
	 317	1	5	0.0	45.62	179.92	260.45
	 318	1	15	1.0	46.8	183.5	260.18
	 319	1	3	-1.0	50.52	184.06	260.97
	 320	1	5	0.0	51.09	180.33	261.57
	 321	1	6	0.0	54.17	180.46	259.36
	 322	1	15	1.0	55.67	183.44	261.16
	 323	1	15	1.0	55.49	181.52	264.43
	 324	1	10	0.0	56.99	178.5	262.68
	 325	1	14	0.0	60.02	180.49	261.58
	 326	1	15	1.0	60.59	181.87	264.95
	 327	1	3	-1.0	60.79	178.45	266.5
	 328	1	10	0.0	63.31	177.31	264.05
	 329	1	9	1.0	65.57	180.31	264.35
	 330	1	15	1.0	65.22	180.08	268.08
	 331	1	17	0.0	66.27	176.45	268.32
	 332	1	18	0.0	68.58	176.3	265.41
	 333	1	3	-1.0	70.99	178.94	266.35
	 334	1	1	0.0	70.73	177.99	269.93
	 335	1	15	1.0	72.17	174.76	268.77
	 336	1	10	0.0	74.93	176.35	266.76
	 337	1	9	1.0	75.57	178.88	269.5
	 338	1	10	0.0	76.82	175.86	271.4
	 339	1	16	0.0	79.06	174.96	268.43
	 340	1	4	-1.0	80.61	178.4	269.08
	 341	1	4	-1.0	80.69	178.1	272.88
	 342	1	10	0.0	82.04	174.53	272.58
	 343	1	16	0.0	84.79	175.18	270.07
	 344	1	6	0.0	87.24	177.67	268.68
	 345	1	6	0.0	88.35	177.05	265.13
	 346	1	15	1.0	85.13	175.18	264.38
	 347	1	10	0.0	83.02	177.58	266.37
	 348	1	9	1.0	82.02	179.78	263.4
	 349	1	13	0.0	80.37	178.24	260.34
	 350	1	9	1.0	77.38	180.1	258.63
	 351	1	13	0.0	74.08	181.61	259.94
	 352	1	8	0.0	71.48	179.02	258.82
	 353	1	3	-1.0	68.89	180.8	256.62
	 354	1	18	0.0	65.36	179.67	257.59
	 355	1	14	0.0	62.35	180.68	255.51
	 356	1	18	0.0	58.73	179.56	255.9
	 357	1	8	0.0	56.73	180.53	252.8
	 358	1	17	0.0	53.14	181.8	252.98
	 359	1	7	0.5	51.4	181.94	249.59
	 360	1	7	0.5	47.71	182.52	248.84
	 361	1	11	0.0	47.33	179.08	247.21
	 362	1	14	0.0	47.37	176.9	250.34
	 363	1	15	1.0	44.26	174.74	250.74
	 364	1	20	0.0	44.5	174.17	246.98
	 365	1	1	0.0	48.09	172.9	246.96
	 366	1	18	0.0	48.18	169.27	245.82
	 367	1	19	0.0	45.21	169.63	243.46
	 368	1	5	0.0	46.5	172.9	241.97
	 369	1	6	0.0	49.91	171.45	241.15
	 370	1	6	0.0	48.09	168.46	239.67
	 371	1	16	0.0	45.89	170.71	237.57
	 372	1	11	0.0	48.97	172.57	236.24
	 373	1	10	0.0	50.86	169.33	235.5
	 374	1	1	0.0	47.87	167.84	233.66
	 375	1	16	0.0	47.6	171.01	231.53
	 376	1	17	0.0	51.09	170.62	230.07
	 377	1	13	0.0	52.0	168.59	226.95
	 378	1	4	-1.0	54.57	166.37	228.74
	 379	1	5	0.0	51.81	165.01	231.06
	 380	1	20	0.0	50.42	163.03	228.15
	 381	1	14	0.0	53.95	161.65	227.56
	 382	1	18	0.0	54.48	160.42	231.16
	 383	1	2	0.0	50.95	159.0	231.56
	 384	1	7	0.5	50.39	155.26	231.46
	 385	1	17	0.0	48.07	154.29	228.68
	 386	1	9	1.0	45.36	151.63	228.64
	 387	1	9	1.0	47.11	149.96	225.72
	 388	1	3	-1.0	50.23	149.58	227.91
	 389	1	20	0.0	48.13	148.56	230.94
	 390	1	4	-1.0	46.82	145.62	228.88
	 391	1	4	-1.0	49.9	144.66	226.89
	 392	1	8	0.0	52.56	145.14	229.59
	 393	1	6	0.0	50.28	144.68	232.62
	 394	1	13	0.0	49.39	146.52	235.88
	 395	1	16	0.0	53.06	146.65	237.0
	 396	1	8	0.0	53.56	149.89	235.05
	 397	1	2	0.0	51.5	151.94	237.51
	 398	1	15	1.0	54.06	151.04	240.19
	 399	1	7	0.5	56.17	153.97	238.98
	 400	1	12	0.0	56.53	157.33	237.25
	 401	1	13	0.0	59.9	158.41	235.74
	 402	1	18	0.0	61.14	161.38	237.85
	 403	1	5	0.0	60.47	164.17	235.35
	 404	1	6	0.0	63.41	166.55	235.9
	 405	1	15	1.0	111.39	133.72	265.25
	 406	1	9	1.0	110.36	136.99	266.9
	 407	1	18	0.0	108.2	137.9	263.9
	 408	1	18	0.0	104.81	139.52	263.33
	 409	1	18	0.0	102.28	139.93	260.44
	 410	1	2	0.0	99.93	142.63	259.19
	 411	1	3	-1.0	97.25	142.69	256.5
	 412	1	12	0.0	96.12	146.32	256.44
	 413	1	6	0.0	92.65	146.1	254.95
	 414	1	17	0.0	90.61	149.06	253.73
	 415	1	6	0.0	87.95	148.06	256.23
	 416	1	5	0.0	89.72	145.87	258.77
	 417	1	18	0.0	93.24	145.43	260.08
	 418	1	9	1.0	94.2	141.77	260.63
	 419	1	2	0.0	97.46	141.32	262.53
	 420	1	6	0.0	98.99	138.47	264.54
	 421	1	20	0.0	102.16	136.37	264.73
	 422	1	1	0.0	103.98	134.07	262.35
	 423	1	6	0.0	102.44	130.59	262.59
	 424	1	16	0.0	99.11	131.95	263.8
	 425	1	12	0.0	96.08	130.01	262.57
	 426	1	5	0.0	93.65	132.9	263.09
	 427	1	13	0.0	94.5	136.6	263.16
	 428	1	4	-1.0	95.08	137.36	266.84
	 429	1	7	0.5	93.57	140.85	266.38
	 430	1	8	0.0	90.92	142.09	263.96
	 431	1	5	0.0	89.63	145.65	264.19
	 432	1	13	0.0	88.51	148.53	261.93
	 433	1	1	0.0	91.22	150.45	260.06
	 434	1	10	0.0	90.05	153.69	261.66
	 435	1	18	0.0	91.5	156.95	263.07
	 436	1	6	0.0	89.0	159.35	264.7
	 437	1	15	1.0	89.71	162.88	265.99
	 438	1	13	0.0	87.2	164.44	268.53
	 439	1	8	0.0	84.98	167.45	267.77
	 440	1	8	0.0	84.57	168.71	271.36
	 441	1	15	1.0	86.3	168.56	274.78
	 442	1	4	-1.0	88.06	158.29	278.58
	 443	1	8	0.0	88.4	160.25	275.3
	 444	1	9	1.0	91.96	161.14	274.14
	 445	1	3	-1.0	93.2	163.5	271.37
	 446	1	10	0.0	92.83	160.55	268.96
	 447	1	11	0.0	91.05	157.19	268.85
	 448	1	18	0.0	91.96	154.09	266.82
	 449	1	6	0.0	90.16	150.88	265.85
	 450	1	3	-1.0	87.73	149.47	268.43
	 451	1	4	-1.0	87.73	152.56	270.64
	 452	1	1	0.0	87.19	154.85	267.6
	 453	1	16	0.0	84.34	152.72	266.23
	 454	1	4	-1.0	82.67	152.66	269.66
	 455	1	10	0.0	82.48	156.52	269.89
	 456	1	15	1.0	82.02	157.15	266.14
	 457	1	16	0.0	79.07	159.53	266.69
	 458	1	11	0.0	81.5	161.94	268.45
	 459	1	10	0.0	84.6	161.88	266.21
	 460	1	4	-1.0	85.45	163.04	262.69
	 461	1	18	0.0	86.78	159.68	261.5
	 462	1	12	0.0	89.28	158.94	258.68
	 463	1	20	0.0	90.26	155.78	256.78
	 464	1	13	0.0	93.91	156.1	255.68
	 465	1	11	0.0	93.26	153.15	253.33
	 466	1	4	-1.0	91.2	154.07	250.25
	 467	1	12	0.0	90.61	151.02	248.0
	 468	1	6	0.0	93.55	149.04	249.44
	 469	1	8	0.0	96.0	151.93	248.85
	 470	1	18	0.0	97.3	154.37	251.5
	 471	1	15	1.0	96.09	157.96	251.02
	 472	1	12	0.0	97.06	159.54	254.38
	 473	1	19	0.0	100.53	158.65	255.7
	 474	1	3	-1.0	99.95	160.73	258.83
	 475	1	3	-1.0	96.86	158.85	260.09
	 476	1	11	0.0	98.45	155.6	258.85
	 477	1	9	1.0	101.27	156.21	261.34
	 478	1	7	0.5	98.76	156.55	264.21
	 479	1	10	0.0	97.08	153.3	263.07
	 480	1	19	0.0	100.42	151.47	263.03
	 481	1	3	-1.0	101.27	152.93	266.48
	 482	1	20	0.0	97.97	151.41	267.71
	 483	1	17	0.0	98.6	147.92	266.25
	 484	1	5	0.0	102.08	147.73	267.77
	 485	1	6	0.0	101.22	149.81	270.86
	 486	1	13	0.0	100.07	148.24	274.18
	 487	1	4	-1.0	96.34	148.03	273.48
	 488	1	9	1.0	96.88	145.35	270.8
	 489	1	10	0.0	100.35	143.81	270.36
	 490	1	12	0.0	102.45	145.68	272.95
	 491	1	8	0.0	105.73	145.08	271.13
	 492	1	3	-1.0	109.12	146.75	270.81
	 493	1	17	0.0	109.25	147.13	267.04
	 494	1	15	1.0	113.06	147.34	267.21
	 495	1	12	0.0	113.34	143.7	268.4
	 496	1	2	0.0	110.92	142.27	265.81
	 497	1	9	1.0	110.75	141.12	262.19
	 498	1	8	0.0	107.51	142.02	260.29
	 499	1	10	0.0	105.81	140.82	257.09
	 500	1	10	0.0	103.34	143.11	255.29
	 501	1	17	0.0	101.0	142.59	252.34
	 502	1	4	-1.0	101.77	144.68	249.19
	 503	1	13	0.0	98.42	145.96	247.83
	 504	1	13	0.0	97.22	144.66	244.42
	 505	1	11	0.0	98.89	146.79	241.73
	 506	1	12	0.0	100.16	149.49	244.09
	 507	1	13	0.0	102.4	152.19	242.55
	 508	1	17	0.0	105.97	151.74	243.83
	 509	1	9	1.0	105.89	155.24	245.37
	 510	1	12	0.0	103.75	153.77	248.17
	 511	1	15	1.0	105.64	150.46	248.15
	 512	1	4	-1.0	108.84	152.39	248.9
	 513	1	9	1.0	107.44	154.87	251.44
	 514	1	8	0.0	106.32	151.97	253.71
	 515	1	18	0.0	109.77	150.35	253.63
	 516	1	4	-1.0	111.05	153.85	254.49
	 517	1	18	0.0	108.42	154.2	257.23
	 518	1	11	0.0	109.08	150.75	258.72
	 519	1	5	0.0	112.85	151.25	259.04
	 520	1	4	-1.0	112.97	154.99	259.79
	 521	1	17	0.0	109.98	155.63	262.06
	 522	1	20	0.0	109.58	152.18	263.75
	 523	1	14	0.0	113.09	150.69	263.24
	 524	1	5	0.0	112.15	147.01	262.75
	 525	1	16	0.0	115.21	144.74	262.43
	 526	1	6	0.0	113.48	142.75	259.65
	 527	1	18	0.0	110.82	143.61	257.04
	 528	1	20	0.0	109.16	141.86	254.07
	 529	1	18	0.0	106.5	142.82	251.52
	 530	1	1	0.0	104.37	139.88	250.38
	 531	1	8	0.0	101.93	140.13	247.49
	 532	1	14	0.0	98.22	140.12	248.32
	 533	1	1	0.0	97.41	138.44	245.0
	 534	1	18	0.0	99.84	135.59	245.72
	 535	1	10	0.0	99.88	134.82	249.5
	 536	1	17	0.0	96.23	134.14	248.74
	 537	1	10	0.0	97.48	131.16	246.73
	 538	1	20	0.0	99.81	129.61	249.31
	 539	1	1	0.0	96.87	128.83	251.6
	 540	1	14	0.0	95.35	126.62	248.9
	 541	1	6	0.0	98.76	125.45	247.7
	 542	1	10	0.0	99.82	127.26	244.54
	 543	1	10	0.0	102.83	128.91	242.9
	 544	1	17	0.0	101.6	129.63	239.38
	 545	1	6	0.0	97.99	130.72	238.9
	 546	1	18	0.0	95.27	133.35	238.57
	 547	1	18	0.0	93.5	135.31	241.31
	 548	1	18	0.0	90.08	136.93	240.86
	 549	1	3	-1.0	89.78	139.31	243.84
	 550	1	16	0.0	86.43	141.07	243.92
	 551	1	6	0.0	85.96	143.17	247.06
	 552	1	3	-1.0	84.31	146.5	247.86
	 553	1	6	0.0	85.97	149.08	245.63
	 554	1	18	0.0	87.42	147.19	242.66
	 555	1	17	0.0	87.78	143.71	241.16
	 556	1	7	0.5	91.44	142.93	240.34
	 557	1	8	0.0	93.08	139.94	238.57
	 558	1	2	0.0	96.73	138.74	238.71
	 559	1	13	0.0	98.39	135.49	237.64
	 560	1	18	0.0	101.68	134.62	239.37
	 561	1	20	0.0	104.06	132.09	237.83
	 562	1	4	-1.0	106.4	130.48	240.38
	 563	1	6	0.0	105.64	133.16	242.97
	 564	1	5	0.0	106.63	136.28	241.03
	 565	1	16	0.0	103.58	137.84	239.37
	 566	1	10	0.0	104.44	139.85	236.26
	 567	1	13	0.0	103.37	143.53	236.44
	 568	1	7	0.5	101.68	143.62	233.01
	 569	1	10	0.0	99.38	140.64	233.47
	 570	1	17	0.0	97.3	142.5	236.08
	 571	1	15	1.0	93.98	144.2	235.04
	 572	1	15	1.0	91.0	145.72	236.85
	 573	1	10	0.0	87.24	145.88	236.55
	 574	1	3	-1.0	85.9	149.05	238.2
	 575	1	8	0.0	82.89	147.09	239.49
	 576	1	1	0.0	82.67	145.5	242.93
	 577	1	6	0.0	80.72	145.53	246.21
	 578	1	15	1.0	79.95	149.25	246.47
	 579	1	3	-1.0	78.81	149.42	242.84
	 580	1	8	0.0	76.43	146.48	243.17
	 581	1	17	0.0	74.92	147.85	246.39
	 582	1	15	1.0	74.59	151.14	244.54
	 583	1	20	0.0	72.9	149.42	241.57
	 584	1	10	0.0	70.49	147.45	243.75
	 585	1	8	0.0	69.25	150.77	245.12
	 586	1	9	1.0	68.43	151.85	241.55
	 587	1	10	0.0	66.53	148.61	240.92
	 588	1	10	0.0	64.51	148.89	244.13
	 589	1	10	0.0	63.8	152.45	243.01
	 590	1	10	0.0	62.34	151.19	239.73
	 591	1	15	1.0	60.33	148.63	241.73
	 592	1	6	0.0	58.7	151.67	243.36
	 593	1	20	0.0	60.55	152.06	246.69
	 594	1	1	0.0	61.85	155.59	247.39
	 595	1	5	0.0	65.42	154.71	248.47
	 596	1	12	0.0	68.42	157.04	248.47
	 597	1	7	0.5	71.9	156.2	247.14
	 598	1	16	0.0	73.54	158.01	250.07
	 599	1	1	0.0	71.1	157.76	252.98
	 600	1	3	-1.0	70.18	154.1	252.57
	 601	1	5	0.0	73.44	152.64	251.29
	 602	1	4	-1.0	74.07	150.62	254.46
	 603	1	17	0.0	70.5	149.29	254.64
	 604	1	18	0.0	70.65	148.15	251.03
	 605	1	15	1.0	74.15	146.71	251.4
	 606	1	11	0.0	72.67	144.31	253.96
	 607	1	8	0.0	69.77	143.46	251.65
	 608	1	9	1.0	72.38	142.68	248.99
	 609	1	4	-1.0	74.46	140.47	251.25
	 610	1	9	1.0	71.38	138.72	252.58
	 611	1	10	0.0	69.4	138.14	249.36
	 612	1	2	0.0	71.33	138.7	246.12
	 613	1	20	0.0	72.75	135.88	244.05
	 614	1	18	0.0	74.35	135.4	240.62
	 615	1	6	0.0	72.16	133.89	237.91
	 616	1	20	0.0	73.54	130.87	236.09
	 617	1	12	0.0	71.33	131.34	233.06
	 618	1	8	0.0	69.78	134.81	232.74
	 619	1	4	-1.0	67.2	133.77	230.12
	 620	1	14	0.0	65.91	131.39	232.81
	 621	1	4	-1.0	66.16	133.63	235.86
	 622	1	14	0.0	64.11	136.24	234.0
	 623	1	9	1.0	61.52	133.61	233.09
	 624	1	10	0.0	61.27	132.78	236.78
	 625	1	1	0.0	61.18	136.45	237.75
	 626	1	10	0.0	58.47	137.12	235.2
	 627	1	4	-1.0	56.38	133.91	235.21
	 628	1	17	0.0	56.53	132.99	238.9
	 629	1	17	0.0	56.81	134.59	242.34
	 630	1	18	0.0	59.24	132.22	244.07
	 631	1	10	0.0	62.0	134.83	243.85
	 632	1	18	0.0	59.79	137.25	245.78
	 633	1	4	-1.0	60.95	137.63	249.39
	 634	1	16	0.0	59.95	139.97	252.21
	 635	1	20	0.0	62.54	142.06	253.99
	 636	1	17	0.0	61.9	144.19	257.06
	 637	1	10	0.0	63.67	147.57	257.06
	 638	1	13	0.0	64.99	149.3	260.22
	 639	1	3	-1.0	62.01	151.71	260.35
	 640	1	6	0.0	59.64	148.67	260.41
	 641	1	15	1.0	58.41	148.8	256.79
	 642	1	8	0.0	58.5	145.54	254.8
	 643	1	8	0.0	59.6	145.41	251.15
	 644	1	9	1.0	59.58	142.82	248.36
	 645	1	18	0.0	62.82	141.82	246.7
	 646	1	6	0.0	62.51	139.56	243.64
	 647	1	6	0.0	64.3	139.53	240.29
	 648	1	4	-1.0	66.48	142.42	241.41
	 649	1	15	1.0	68.19	139.74	243.53
	 650	1	5	0.0	70.03	138.42	240.46
	 651	1	4	-1.0	69.85	141.56	238.28
	 652	1	1	0.0	72.06	143.54	240.67
	 653	1	13	0.0	75.13	141.27	240.75
	 654	1	4	-1.0	74.73	140.75	236.99
	 655	1	1	0.0	76.63	144.07	236.63
	 656	1	10	0.0	79.86	142.14	237.29
	 657	1	5	0.0	79.31	140.19	234.08
	 658	1	14	0.0	77.6	143.02	232.2
	 659	1	7	0.5	77.16	148.38	230.71
	 660	1	10	0.0	74.17	147.84	233.03
	 661	1	8	0.0	75.59	150.66	235.2
	 662	1	12	0.0	77.27	152.65	232.43
	 663	1	18	0.0	80.75	151.21	232.8
	 664	1	4	-1.0	83.07	150.59	229.84
	 665	1	6	0.0	84.56	147.07	229.63
	 666	1	18	0.0	83.68	143.41	229.3
	 667	1	6	0.0	82.77	141.91	232.66
	 668	1	18	0.0	84.63	139.59	234.88
	 669	1	1	0.0	84.28	136.35	232.91
	 670	1	4	-1.0	85.07	137.84	229.49
	 671	1	10	0.0	87.89	139.82	231.12
	 672	1	10	0.0	89.3	136.67	232.76
	 673	1	5	0.0	89.09	134.83	229.44
	 674	1	12	0.0	90.73	137.64	227.48
	 675	1	17	0.0	93.56	137.87	230.05
	 676	1	8	0.0	94.4	134.16	230.21
	 677	1	14	0.0	94.32	134.12	226.38
	 678	1	1	0.0	97.02	136.79	226.05
	 679	1	1	0.0	99.59	134.55	227.78
	 680	1	3	-1.0	102.05	131.92	226.57
	 681	1	8	0.0	100.35	128.8	225.1
	 682	1	3	-1.0	102.01	126.61	227.74
	 683	1	17	0.0	101.13	128.91	230.68
	 684	1	15	1.0	97.53	129.29	229.38
	 685	1	16	0.0	96.9	125.63	230.2
	 686	1	4	-1.0	98.38	126.14	233.63
	 687	1	5	0.0	96.35	129.35	234.28
	 688	1	20	0.0	93.0	127.84	233.24
	 689	1	9	1.0	93.49	125.04	235.78
	 690	1	7	0.5	94.63	127.44	238.52
	 691	1	8	0.0	91.88	130.1	238.76
	 692	1	18	0.0	91.32	131.21	242.35
	 693	1	10	0.0	88.55	133.37	243.83
	 694	1	16	0.0	88.99	135.76	246.75
	 695	1	6	0.0	87.16	138.63	248.46
	 696	1	6	0.0	83.66	139.49	249.65
	 697	1	16	0.0	82.01	139.9	246.26
	 698	1	17	0.0	82.75	136.26	245.3
	 699	1	11	0.0	80.28	134.9	247.85
	 700	1	20	0.0	77.12	135.36	245.74
	 701	1	13	0.0	75.5	131.9	245.36
	 702	1	6	0.0	76.03	130.64	241.83
	 703	1	10	0.0	79.04	132.82	241.1
	 704	1	13	0.0	81.63	130.08	240.58
	 705	1	16	0.0	79.16	128.09	238.42
	 706	1	15	1.0	78.42	131.15	236.31
	 707	1	10	0.0	82.18	131.85	235.78
	 708	1	4	-1.0	82.72	128.2	234.81
	 709	1	15	1.0	79.79	128.32	232.41
	 710	1	4	-1.0	80.79	131.63	230.92
	 711	1	10	0.0	84.4	130.6	230.29
	 712	1	9	1.0	83.21	127.44	228.56
	 713	1	14	0.0	80.94	129.46	226.32
	 714	1	10	0.0	83.82	131.75	225.35
	 715	1	20	0.0	86.37	129.0	224.8
	 716	1	10	0.0	83.8	127.17	222.66
	 717	1	4	-1.0	82.81	130.17	220.52
	 718	1	15	1.0	86.1	132.0	221.03
	 719	1	18	0.0	88.68	129.25	221.55
	 720	1	10	0.0	87.74	126.4	219.21
	 721	1	9	1.0	85.87	128.51	216.65
	 722	1	6	0.0	82.76	126.36	216.27
	 723	1	3	-1.0	83.64	122.98	217.76
	 724	1	18	0.0	82.2	120.7	220.43
	 725	1	4	-1.0	84.59	117.78	220.0
	 726	1	9	1.0	87.48	119.91	221.18
	 727	1	10	0.0	85.48	121.22	224.14
	 728	1	16	0.0	85.41	118.23	226.5
	 729	1	9	1.0	89.17	118.3	226.56
	 730	1	5	0.0	88.87	121.78	228.1
	 731	1	9	1.0	90.39	121.34	231.55
	 732	1	8	0.0	89.42	124.24	233.81
	 733	1	15	1.0	89.53	124.84	237.58
	 734	1	8	0.0	87.92	127.74	239.37
	 735	1	4	-1.0	88.53	126.93	243.0
	 736	1	3	-1.0	86.24	128.63	245.48
	 737	1	13	0.0	87.14	127.31	248.93
	 738	1	13	0.0	84.67	128.07	251.73
	 739	1	15	1.0	86.84	130.66	253.49
	 740	1	15	1.0	87.47	133.0	250.56
	 741	1	9	1.0	87.1	136.0	252.87
	 742	1	7	0.5	90.5	136.03	254.63
	 743	1	11	0.0	93.59	134.13	253.49
	 744	1	18	0.0	96.25	136.8	252.83
	 745	1	5	0.0	96.99	136.82	256.56
	 746	1	10	0.0	96.89	133.04	256.87
	 747	1	6	0.0	99.33	132.74	253.95
	 748	1	6	0.0	101.62	135.45	255.35
	 749	1	1	0.0	101.58	133.89	258.83
	 750	1	18	0.0	102.7	130.5	257.46
	 751	1	10	0.0	105.39	132.04	255.23
	 752	1	1	0.0	106.77	134.4	257.87
	 753	1	3	-1.0	106.96	131.34	260.18
	 754	1	8	0.0	108.68	128.89	257.84
	 755	1	11	0.0	111.01	131.75	256.76
	 756	1	9	1.0	111.55	133.29	260.25
	 757	1	3	-1.0	115.1	132.08	260.97
	 758	1	9	1.0	116.37	132.4	257.38
	 759	1	3	-1.0	118.75	135.23	256.46
	 760	1	12	0.0	118.5	136.2	252.75
	 761	1	5	0.0	114.71	136.52	253.0
	 762	1	19	0.0	114.2	139.37	255.51
	 763	1	11	0.0	115.39	142.76	254.28
	 764	1	17	0.0	117.43	144.06	257.25
	 765	1	15	1.0	118.03	147.46	258.93
	 766	1	14	0.0	121.73	146.96	258.26
	 767	1	4	-1.0	120.81	146.87	254.55
	 768	1	20	0.0	118.49	149.91	254.4
	 769	1	14	0.0	120.77	152.12	256.4
	 770	1	4	-1.0	122.99	151.58	253.32
	 771	1	9	1.0	120.07	152.3	250.99
	 772	1	6	0.0	120.46	151.73	247.28
	 773	1	18	0.0	116.72	151.36	246.74
	 774	1	15	1.0	117.17	147.66	247.49
	 775	1	18	0.0	113.69	147.49	249.02
	 776	1	10	0.0	112.64	145.07	246.28
	 777	1	4	-1.0	114.85	142.04	245.59
	 778	1	9	1.0	113.87	140.58	242.21
	 779	1	11	0.0	53.83	106.77	271.37
	 780	1	1	0.0	56.17	109.13	273.25
	 781	1	20	0.0	55.83	112.23	271.06
	 782	1	7	0.5	57.59	115.5	271.84
	 783	1	16	0.0	57.21	118.57	269.68
	 784	1	5	0.0	60.61	120.3	269.72
	 785	1	10	0.0	59.27	122.8	267.18
	 786	1	18	0.0	56.76	123.29	264.36
	 787	1	4	-1.0	59.08	123.38	261.33
	 788	1	13	0.0	60.84	120.13	260.3
	 789	1	8	0.0	63.55	118.29	262.11
	 790	1	16	0.0	65.88	117.73	259.18
	 791	1	2	0.0	68.04	115.19	260.97
	 792	1	7	0.5	68.95	114.07	264.46
	 793	1	1	0.0	71.56	112.1	266.41
	 794	1	19	0.0	71.74	110.61	269.91
	 795	1	12	0.0	74.75	110.46	272.22
	 796	1	9	1.0	76.02	107.13	273.56
	 797	1	3	-1.0	73.8	106.76	276.6
	 798	1	15	1.0	70.82	108.53	275.0
	 799	1	17	0.0	70.76	111.34	277.57
	 800	1	14	0.0	71.14	114.0	274.84
	 801	1	8	0.0	69.65	114.41	271.38
	 802	1	1	0.0	71.02	116.67	268.67
	 803	1	8	0.0	68.59	118.07	266.06
	 804	1	2	0.0	68.6	120.61	263.28
	 805	1	13	0.0	65.45	122.76	263.54
	 806	1	12	0.0	65.25	123.27	259.75
	 807	1	12	0.0	68.1	125.79	259.61
	 808	1	7	0.5	71.87	126.33	259.73
	 809	1	4	-1.0	72.25	125.28	263.41
	 810	1	18	0.0	72.2	122.14	265.53
	 811	1	7	0.5	70.53	122.16	268.94
	 812	1	8	0.0	71.4	119.68	271.64
	 813	1	20	0.0	68.71	118.95	274.23
	 814	1	4	-1.0	69.47	117.08	277.44
	 815	1	9	1.0	66.63	115.54	279.38
	 816	1	16	0.0	66.02	116.76	282.92
	 817	1	6	0.0	63.43	114.71	284.8
	 818	1	1	0.0	60.26	115.17	282.74
	 819	1	9	1.0	61.4	118.16	280.72
	 820	1	19	0.0	63.7	118.39	277.67
	 821	1	17	0.0	66.19	121.24	278.07
	 822	1	9	1.0	68.39	122.84	275.38
	 823	1	18	0.0	72.05	122.85	276.49
	 824	1	7	0.5	73.98	123.69	273.3
	 825	1	4	-1.0	73.76	125.48	269.95
	 826	1	10	0.0	76.28	124.51	267.29
	 827	1	9	1.0	76.44	127.54	264.98
	 828	1	4	-1.0	78.94	127.16	262.16
	 829	1	7	0.5	77.13	126.07	258.96
	 830	1	12	0.0	75.98	128.76	256.54
	 831	1	6	0.0	73.15	126.73	255.07
	 832	1	14	0.0	70.7	124.03	256.13
	 833	1	18	0.0	72.25	121.12	257.99
	 834	1	17	0.0	71.29	117.85	256.28
	 835	1	6	0.0	73.1	115.17	258.35
	 836	1	8	0.0	74.18	114.78	261.97
	 837	1	3	-1.0	75.87	111.76	263.53
	 838	1	19	0.0	77.25	111.25	267.0
	 839	1	1	0.0	80.24	109.01	267.52
	 840	1	13	0.0	79.3	107.23	270.77
	 841	1	4	-1.0	82.68	106.3	272.27
	 842	1	16	0.0	84.66	109.32	271.09
	 843	1	12	0.0	81.67	111.62	271.86
	 844	1	15	1.0	82.2	113.63	268.67
	 845	1	8	0.0	79.48	115.08	266.5
	 846	1	18	0.0	79.9	115.29	262.74
	 847	1	17	0.0	77.59	117.54	260.73
	 848	1	2	0.0	77.14	118.16	257.0
	 849	1	6	0.0	75.05	120.83	255.29
	 850	1	17	0.0	74.05	122.49	252.03
	 851	1	3	-1.0	76.91	124.98	252.37
	 852	1	15	1.0	79.11	122.12	250.97
	 853	1	12	0.0	80.94	121.74	254.28
	 854	1	1	0.0	81.33	119.28	257.16
	 855	1	20	0.0	82.46	119.9	260.71
	 856	1	18	0.0	83.74	117.52	263.32
	 857	1	19	0.0	82.59	118.91	266.64
	 858	1	17	0.0	84.67	118.29	269.75
	 859	1	10	0.0	83.44	118.99	273.28
	 860	1	9	1.0	86.05	121.3	274.87
	 861	1	6	0.0	85.11	122.03	278.49