LAMMPS data file via write_data, version 3 Mar 2020, timestep = 1000000

2677 atoms
20 atom types
26 bonds
1 bond types

-200 200 xlo xhi
-200 200 ylo yhi
-200 200 zlo zhi

Masses

1 71.08
2 103.1
3 115.1
4 129.1
5 147.2
6 57.05
7 137.1
8 113.2
9 128.2
10 113.2
11 131.2
12 114.1
13 97.12
14 128.1
15 156.2
16 87.08
17 101.1
18 99.07
19 186.2
20 163.2

Atoms

	   1	1	11	0.0	266.08	323.61	287.31
	   2	1	3	-1.0	263.27	326.06	287.04
	   3	1	16	0.0	261.0	323.19	286.18
	   4	1	14	0.0	261.16	319.5	287.05
	   5	1	6	0.0	263.98	317.23	285.98
	   6	1	15	1.0	261.69	315.54	283.51
	   7	1	9	1.0	260.25	316.95	280.32
	   8	1	18	0.0	263.66	317.74	278.94
	   9	1	18	0.0	266.03	315.27	277.4
	  10	1	18	0.0	269.45	315.03	275.82
	  11	1	2	0.0	270.54	312.37	273.41
	  12	1	3	-1.0	273.62	311.44	271.48
	  13	1	12	0.0	272.73	310.1	268.09
	  14	1	6	0.0	275.89	308.06	268.05
	  15	1	17	0.0	276.81	305.61	265.35
	  16	1	6	0.0	277.86	302.81	267.67
	  17	1	5	0.0	275.31	303.43	270.32
	  18	1	18	0.0	272.64	305.86	271.27
	  19	1	9	1.0	272.99	307.37	274.71
	  20	1	2	0.0	270.02	309.26	276.02
	  21	1	6	0.0	268.06	310.35	279.06
	  22	1	20	0.0	266.37	313.25	280.79
	  23	1	1	0.0	268.61	316.25	280.61
	  24	1	6	0.0	271.0	316.26	283.53
	  25	1	16	0.0	270.75	312.55	284.12
	  26	1	12	0.0	273.77	311.08	285.86
	  27	1	5	0.0	274.88	309.25	282.75
	  28	1	13	0.0	273.04	308.88	279.53
	  29	1	4	-1.0	270.4	307.07	281.47
	  30	1	7	0.5	269.8	304.53	278.82
	  31	1	8	0.0	272.37	303.3	276.39
	  32	1	5	0.0	271.79	300.91	273.58
	  33	1	13	0.0	273.31	299.96	270.34
	  34	1	1	0.0	272.29	301.93	267.25
	  35	1	10	0.0	270.91	298.73	265.67
	  36	1	18	0.0	267.37	297.96	264.49
	  37	1	6	0.0	265.84	294.91	262.79
	  38	1	15	1.0	262.67	293.07	261.71
	  39	1	13	0.0	262.7	289.27	261.41
	  40	1	8	0.0	264.09	287.49	258.32
	  41	1	8	0.0	265.37	283.95	259.31
	  42	1	15	1.0	268.58	282.68	260.97
	  43	1	16	0.0	267.62	279.15	262.03
	  44	1	17	0.0	267.47	276.45	259.37
	  45	1	17	0.0	266.53	274.38	262.41
	  46	1	9	1.0	263.5	273.4	264.5
	  47	1	18	0.0	264.55	275.16	267.73
	  48	1	6	0.0	263.39	278.41	269.36
	  49	1	12	0.0	259.61	278.46	269.67
	  50	1	8	0.0	259.97	281.89	271.29
	  51	1	4	-1.0	256.77	283.69	270.16
	  52	1	8	0.0	257.9	286.62	272.28
	  53	1	9	1.0	258.16	289.43	269.72
	  54	1	3	-1.0	258.67	290.2	266.02
	  55	1	10	0.0	260.63	293.42	265.54
	  56	1	11	0.0	263.25	294.88	267.76
	  57	1	18	0.0	265.33	297.95	268.3
	  58	1	6	0.0	268.67	298.46	269.98
	  59	1	3	-1.0	269.24	296.48	273.15
	  60	1	4	-1.0	266.38	294.12	272.48
	  61	1	1	0.0	267.78	293.64	268.98
	  62	1	16	0.0	271.21	292.43	270.05
	  63	1	4	-1.0	270.46	288.74	270.41
	  64	1	10	0.0	268.63	288.05	267.15
	  65	1	15	1.0	271.12	288.6	264.35
	  66	1	16	0.0	269.72	287.2	261.09
	  67	1	11	0.0	266.56	286.39	262.96
	  68	1	10	0.0	265.79	289.93	262.01
	  69	1	4	-1.0	266.8	291.73	258.87
	  70	1	18	0.0	269.0	294.25	260.55
	  71	1	12	0.0	269.9	297.36	258.71
	  72	1	20	0.0	271.62	300.7	258.88
	  73	1	13	0.0	271.02	302.56	255.74
	  74	1	11	0.0	273.74	305.13	255.89
	  75	1	4	-1.0	276.79	306.72	254.44
	  76	1	12	0.0	279.47	308.15	256.67
	  77	1	6	0.0	277.24	307.42	259.61
	  78	1	8	0.0	274.55	309.63	258.15
	  79	1	18	0.0	271.26	307.82	257.7
	  80	1	15	1.0	269.56	307.31	254.35
	  81	1	12	0.0	266.06	306.54	255.57
	  82	1	19	0.0	263.23	308.36	257.35
	  83	1	3	-1.0	260.96	305.5	258.53
	  84	1	3	-1.0	262.91	302.91	260.51
	  85	1	11	0.0	264.19	305.73	262.63
	  86	1	9	1.0	260.6	306.6	263.33
	  87	1	7	0.5	260.02	303.07	264.47
	  88	1	10	0.0	262.94	303.53	266.77
	  89	1	19	0.0	261.68	306.9	267.86
	  90	1	3	-1.0	258.33	305.41	268.67
	  91	1	20	0.0	260.13	302.68	270.56
	  92	1	17	0.0	262.39	305.12	272.42
	  93	1	5	0.0	259.4	307.02	273.76
	  94	1	6	0.0	258.5	304.25	276.14
	  95	1	13	0.0	260.39	303.31	279.19
	  96	1	4	-1.0	262.51	301.24	276.88
	  97	1	9	1.0	264.73	304.18	276.23
	  98	1	10	0.0	263.15	307.41	277.53
	  99	1	12	0.0	259.66	306.93	279.0
	 100	1	8	0.0	258.65	310.49	278.02
	 101	1	3	-1.0	256.16	312.58	276.01
	 102	1	17	0.0	257.44	315.19	273.5
	 103	1	15	1.0	254.85	317.91	272.99
	 104	1	12	0.0	254.87	319.3	276.48
	 105	1	2	0.0	258.61	318.93	276.55
	 106	1	9	1.0	261.81	320.04	274.86
	 107	1	8	0.0	264.96	318.22	273.73
	 108	1	10	0.0	268.64	318.79	272.95
	 109	1	10	0.0	270.22	317.14	269.89
	 110	1	17	0.0	273.05	317.55	267.38
	 111	1	4	-1.0	273.63	318.22	263.66
	 112	1	13	0.0	276.44	317.33	261.32
	 113	1	13	0.0	278.65	320.05	259.99
	 114	1	11	0.0	277.99	319.14	256.35
	 115	1	12	0.0	274.4	318.09	256.95
	 116	1	13	0.0	272.29	318.92	254.03
	 117	1	17	0.0	269.69	320.74	256.06
	 118	1	9	1.0	266.85	319.98	253.71
	 119	1	12	0.0	266.4	316.44	254.87
	 120	1	15	1.0	266.63	317.57	258.45
	 121	1	4	-1.0	264.01	320.17	257.85
	 122	1	9	1.0	261.86	317.46	256.38
	 123	1	8	0.0	262.41	315.28	259.4
	 124	1	18	0.0	261.89	318.14	261.79
	 125	1	4	-1.0	258.67	318.85	259.98
	 126	1	18	0.0	257.8	315.24	260.69
	 127	1	11	0.0	258.91	315.63	264.25
	 128	1	5	0.0	256.7	318.67	264.05
	 129	1	4	-1.0	253.86	316.56	262.96
	 130	1	17	0.0	254.4	313.8	265.52
	 131	1	20	0.0	256.44	314.83	268.58
	 132	1	14	0.0	255.88	318.54	268.25
	 133	1	5	0.0	258.11	319.56	271.15
	 134	1	16	0.0	257.33	322.85	272.84
	 135	1	6	0.0	260.92	323.74	272.1
	 136	1	18	0.0	264.06	322.05	270.87
	 137	1	20	0.0	267.77	322.69	270.49
	 138	1	18	0.0	270.34	321.5	267.98
	 139	1	1	0.0	273.99	322.28	267.44
	 140	1	8	0.0	277.05	321.16	265.51
	 141	1	14	0.0	278.26	317.86	266.87
	 142	1	1	0.0	281.78	318.79	267.86
	 143	1	18	0.0	280.95	321.96	269.77
	 144	1	10	0.0	279.1	319.97	272.38
	 145	1	17	0.0	282.37	318.68	273.82
	 146	1	10	0.0	283.72	321.97	275.16
	 147	1	20	0.0	280.66	322.65	277.33
	 148	1	1	0.0	281.58	320.95	280.59
	 149	1	14	0.0	284.82	322.96	280.86
	 150	1	6	0.0	283.78	325.84	278.63
	 151	1	10	0.0	286.89	325.45	276.48
	 152	1	10	0.0	287.85	327.88	273.67
	 153	1	17	0.0	290.54	326.42	271.45
	 154	1	6	0.0	292.65	323.59	270.01
	 155	1	18	0.0	291.45	320.94	267.65
	 156	1	18	0.0	288.34	318.98	268.5
	 157	1	18	0.0	288.69	315.35	267.68
	 158	1	3	-1.0	286.46	312.31	267.84
	 159	1	16	0.0	286.35	308.77	266.52
	 160	1	6	0.0	284.67	305.42	267.03
	 161	1	3	-1.0	283.17	302.9	264.64
	 162	1	6	0.0	281.45	305.21	262.15
	 163	1	18	0.0	283.66	308.25	261.62
	 164	1	17	0.0	286.18	310.66	263.13
	 165	1	7	0.5	286.32	314.45	263.48
	 166	1	8	0.0	289.17	317.01	262.89
	 167	1	2	0.0	287.69	320.53	263.69
	 168	1	13	0.0	290.26	323.15	264.38
	 169	1	18	0.0	289.0	325.71	266.83
	 170	1	20	0.0	289.91	329.01	268.38
	 171	1	4	-1.0	287.82	331.28	270.59
	 172	1	6	0.0	285.14	328.69	270.27
	 173	1	5	0.0	285.1	329.39	266.58
	 174	1	16	0.0	286.01	326.42	264.46
	 175	1	10	0.0	287.73	327.42	261.3
	 176	1	13	0.0	285.25	326.26	258.74
	 177	1	7	0.5	287.37	326.67	255.63
	 178	1	10	0.0	290.22	324.99	257.43
	 179	1	17	0.0	288.06	322.34	259.08
	 180	1	15	1.0	288.75	318.68	258.54
	 181	1	15	1.0	287.11	315.39	259.37
	 182	1	10	0.0	287.67	311.75	258.6
	 183	1	3	-1.0	284.84	309.78	257.02
	 184	1	8	0.0	285.21	306.47	258.74
	 185	1	1	0.0	286.26	304.54	261.8
	 186	1	6	0.0	286.19	300.93	263.1
	 187	1	15	1.0	283.47	299.6	260.81
	 188	1	3	-1.0	285.51	299.32	257.61
	 189	1	8	0.0	288.62	298.46	259.5
	 190	1	17	0.0	286.71	295.44	260.66
	 191	1	15	1.0	286.15	294.52	257.05
	 192	1	20	0.0	289.86	294.82	256.39
	 193	1	10	0.0	290.72	293.03	259.58
	 194	1	8	0.0	288.35	290.2	258.84
	 195	1	9	1.0	289.99	289.82	255.47
	 196	1	10	0.0	293.19	288.91	257.25
	 197	1	10	0.0	291.33	286.14	259.02
	 198	1	10	0.0	290.1	284.42	255.88
	 199	1	10	0.0	293.7	283.74	254.96
	 200	1	15	1.0	293.85	281.97	258.31
	 201	1	6	0.0	290.99	279.76	257.25
	 202	1	20	0.0	288.9	282.17	259.31
	 203	1	1	0.0	286.74	282.4	256.15
	 204	1	5	0.0	283.47	282.23	258.2
	 205	1	12	0.0	280.56	284.33	256.95
	 206	1	7	0.5	280.6	288.0	257.86
	 207	1	16	0.0	276.83	288.22	257.79
	 208	1	1	0.0	276.62	286.41	261.06
	 209	1	3	-1.0	280.29	287.01	262.04
	 210	1	5	0.0	281.32	290.63	261.32
	 211	1	4	-1.0	280.17	292.08	264.65
	 212	1	17	0.0	282.18	289.53	266.56
	 213	1	18	0.0	285.2	291.77	266.24
	 214	1	15	1.0	283.1	294.44	267.88
	 215	1	11	0.0	282.78	292.43	271.03
	 216	1	8	0.0	286.5	292.22	271.49
	 217	1	9	1.0	286.92	295.72	270.21
	 218	1	4	-1.0	284.56	297.05	272.77
	 219	1	9	1.0	285.64	294.98	275.73
	 220	1	10	0.0	289.24	293.88	275.14
	 221	1	2	0.0	291.03	296.0	272.56
	 222	1	20	0.0	293.91	298.39	273.25
	 223	1	18	0.0	297.0	299.74	271.54
	 224	1	6	0.0	300.67	299.66	272.51
	 225	1	20	0.0	303.11	302.56	272.92
	 226	1	12	0.0	306.36	301.24	271.52
	 227	1	8	0.0	305.06	300.29	268.17
	 228	1	4	-1.0	308.3	300.25	266.22
	 229	1	14	0.0	310.11	298.21	268.8
	 230	1	4	-1.0	306.97	296.17	269.03
	 231	1	14	0.0	307.05	295.34	265.36
	 232	1	9	1.0	310.63	294.21	265.57
	 233	1	10	0.0	309.85	292.05	268.56
	 234	1	1	0.0	306.68	290.55	267.23
	 235	1	10	0.0	308.03	288.67	264.26
	 236	1	4	-1.0	311.27	287.76	265.89
	 237	1	17	0.0	309.79	286.64	269.21
	 238	1	17	0.0	306.56	285.33	267.64
	 239	1	18	0.0	305.65	284.45	271.23
	 240	1	10	0.0	303.85	287.75	271.58
	 241	1	18	0.0	300.81	286.55	269.57
	 242	1	4	-1.0	297.43	286.08	271.3
	 243	1	16	0.0	294.21	284.07	270.93
	 244	1	20	0.0	290.53	284.29	271.81
	 245	1	17	0.0	287.73	281.93	272.39
	 246	1	10	0.0	284.86	282.82	270.2
	 247	1	13	0.0	281.77	282.47	272.26
	 248	1	3	-1.0	280.96	279.44	270.19
	 249	1	6	0.0	283.91	278.23	272.17
	 250	1	15	1.0	286.38	277.81	269.38
	 251	1	8	0.0	289.59	279.48	270.21
	 252	1	8	0.0	291.05	281.32	267.28
	 253	1	9	1.0	294.61	282.5	267.07
	 254	1	18	0.0	295.12	286.17	266.46
	 255	1	6	0.0	298.25	288.19	266.42
	 256	1	6	0.0	299.16	291.82	266.02
	 257	1	4	-1.0	296.02	292.57	264.07
	 258	1	15	1.0	294.15	293.37	267.19
	 259	1	5	0.0	296.26	296.5	267.65
	 260	1	4	-1.0	297.74	296.41	264.15
	 261	1	1	0.0	294.51	297.22	262.43
	 262	1	13	0.0	294.93	300.74	263.61
	 263	1	4	-1.0	298.06	300.9	261.5
	 264	1	1	0.0	295.74	301.54	258.61
	 265	1	10	0.0	294.84	304.8	260.26
	 266	1	5	0.0	298.47	305.82	260.14
	 267	1	14	0.0	298.95	304.27	256.75
	 268	1	13	0.0	295.89	303.63	254.75
	 269	1	7	0.5	298.33	302.04	252.29
	 270	1	10	0.0	297.96	298.91	254.31
	 271	1	8	0.0	294.59	298.65	252.62
	 272	1	12	0.0	296.64	299.24	249.51
	 273	1	18	0.0	294.4	302.13	249.19
	 274	1	4	-1.0	297.16	304.57	249.8
	 275	1	6	0.0	297.12	306.82	252.79
	 276	1	18	0.0	299.51	309.16	254.55
	 277	1	6	0.0	297.26	308.56	257.47
	 278	1	18	0.0	295.77	310.82	260.07
	 279	1	1	0.0	299.13	311.42	261.69
	 280	1	4	-1.0	300.47	313.13	258.61
	 281	1	10	0.0	297.22	314.98	258.28
	 282	1	10	0.0	297.68	316.12	261.84
	 283	1	5	0.0	301.08	317.43	260.97
	 284	1	12	0.0	299.56	319.24	258.07
	 285	1	17	0.0	296.86	320.67	260.27
	 286	1	8	0.0	299.36	321.96	262.8
	 287	1	14	0.0	301.48	323.44	260.09
	 288	1	1	0.0	298.39	325.27	259.01
	 289	1	1	0.0	297.95	326.23	262.63
	 290	1	3	-1.0	299.48	329.52	263.61
	 291	1	8	0.0	302.44	330.34	265.73
	 292	1	3	-1.0	300.67	330.7	269.02
	 293	1	17	0.0	298.18	327.97	268.35
	 294	1	15	1.0	300.75	325.47	267.25
	 295	1	16	0.0	302.8	326.18	270.33
	 296	1	4	-1.0	299.8	325.89	272.6
	 297	1	5	0.0	298.97	322.82	270.56
	 298	1	20	0.0	301.64	320.87	272.35
	 299	1	9	1.0	299.4	320.95	275.44
	 300	1	7	0.5	296.3	322.45	273.72
	 301	1	8	0.0	294.25	319.88	271.65
	 302	1	18	0.0	290.94	318.26	272.74
	 303	1	10	0.0	289.49	314.76	272.13
	 304	1	16	0.0	286.23	313.06	272.98
	 305	1	6	0.0	284.21	309.87	273.32
	 306	1	6	0.0	284.69	306.35	274.56
	 307	1	16	0.0	286.9	305.84	271.56
	 308	1	17	0.0	289.25	308.25	273.36
	 309	1	11	0.0	289.55	305.83	276.28
	 310	1	20	0.0	292.41	303.96	274.57
	 311	1	13	0.0	295.82	303.67	276.07
	 312	1	6	0.0	299.23	303.78	274.39
	 313	1	10	0.0	298.22	305.54	271.23
	 314	1	13	0.0	298.49	308.93	272.67
	 315	1	16	0.0	301.93	308.2	273.96
	 316	1	15	1.0	303.02	306.94	270.61
	 317	1	10	0.0	301.62	310.03	269.01
	 318	1	4	-1.0	303.72	312.3	271.2
	 319	1	15	1.0	306.75	310.19	270.51
	 320	1	4	-1.0	305.95	310.61	266.85
	 321	1	10	0.0	305.08	314.3	267.1
	 322	1	9	1.0	308.37	315.27	268.54
	 323	1	14	0.0	310.13	313.95	265.46
	 324	1	10	0.0	308.25	315.58	262.6
	 325	1	20	0.0	308.58	318.99	264.12
	 326	1	10	0.0	312.21	318.44	264.92
	 327	1	4	-1.0	312.98	317.14	261.52
	 328	1	15	1.0	311.02	319.56	259.43
	 329	1	18	0.0	310.82	322.79	261.35
	 330	1	10	0.0	313.5	322.51	264.0
	 331	1	9	1.0	315.86	321.07	261.49
	 332	1	6	0.0	317.9	319.6	264.27
	 333	1	3	-1.0	317.07	321.81	267.24
	 334	1	18	0.0	316.45	319.22	270.01
	 335	1	4	-1.0	316.73	321.12	273.31
	 336	1	9	1.0	313.16	322.47	273.67
	 337	1	10	0.0	311.43	319.15	273.0
	 338	1	16	0.0	310.59	318.32	276.61
	 339	1	9	1.0	310.37	322.0	277.38
	 340	1	5	0.0	307.28	322.23	275.29
	 341	1	9	1.0	304.82	321.06	277.88
	 342	1	8	0.0	303.4	317.7	276.8
	 343	1	15	1.0	300.33	317.46	279.12
	 344	1	8	0.0	297.79	314.79	278.16
	 345	1	4	-1.0	294.46	315.61	276.5
	 346	1	3	-1.0	291.93	312.92	277.4
	 347	1	13	0.0	290.35	312.5	280.77
	 348	1	13	0.0	288.15	309.75	282.08
	 349	1	15	1.0	285.2	312.12	281.74
	 350	1	15	1.0	285.41	311.31	278.06
	 351	1	9	1.0	283.31	308.23	278.6
	 352	1	7	0.5	280.24	310.08	280.0
	 353	1	11	0.0	280.78	313.22	277.94
	 354	1	18	0.0	278.94	311.69	275.02
	 355	1	5	0.0	275.78	312.65	276.88
	 356	1	10	0.0	277.39	314.78	279.58
	 357	1	6	0.0	278.98	317.2	277.23
	 358	1	6	0.0	275.47	318.1	276.17
	 359	1	1	0.0	273.98	318.08	279.64
	 360	1	18	0.0	276.04	320.94	280.99
	 361	1	10	0.0	274.42	323.32	278.52
	 362	1	1	0.0	270.93	322.32	279.6
	 363	1	3	-1.0	271.79	323.21	283.15
	 364	1	8	0.0	272.0	326.81	282.05
	 365	1	11	0.0	269.7	326.59	278.97
	 366	1	9	1.0	266.43	324.98	280.05
	 367	1	3	-1.0	264.7	328.21	281.01
	 368	1	9	1.0	265.94	330.12	278.01
	 369	1	3	-1.0	263.53	330.55	275.15
	 370	1	12	0.0	266.43	332.5	273.86
	 371	1	5	0.0	268.06	329.16	273.25
	 372	1	19	0.0	265.17	326.98	272.28
	 373	1	11	0.0	264.17	326.56	268.67
	 374	1	17	0.0	260.53	325.93	268.25
	 375	1	15	1.0	257.89	323.88	266.48
	 376	1	14	0.0	256.19	327.2	265.94
	 377	1	4	-1.0	259.11	328.34	263.89
	 378	1	20	0.0	258.62	325.36	261.66
	 379	1	14	0.0	254.87	325.85	261.42
	 380	1	4	-1.0	255.53	329.48	260.68
	 381	1	9	1.0	257.47	328.12	257.76
	 382	1	6	0.0	260.2	330.28	259.1
	 383	1	18	0.0	263.59	330.08	257.51
	 384	1	15	1.0	264.9	328.32	260.55
	 385	1	18	0.0	263.46	326.97	263.76
	 386	1	10	0.0	266.18	329.01	265.45
	 387	1	4	-1.0	266.99	332.68	265.31
	 388	1	9	1.0	269.11	333.75	262.38
	 389	1	10	0.0	271.4	335.91	264.5
	 390	1	6	0.0	272.56	334.63	267.84
	 391	1	18	0.0	270.77	336.7	270.43
	 392	1	17	0.0	272.66	335.15	273.29
	 393	1	18	0.0	275.84	333.19	273.57
	 394	1	15	1.0	275.68	329.61	272.5
	 395	1	11	0.0	321.29	282.54	231.46
	 396	1	1	0.0	319.88	279.19	232.55
	 397	1	6	0.0	321.84	276.81	234.5
	 398	1	15	1.0	322.9	274.47	231.77
	 399	1	10	0.0	319.35	274.32	230.59
	 400	1	13	0.0	316.55	276.77	230.54
	 401	1	1	0.0	313.38	277.27	232.58
	 402	1	2	0.0	310.37	274.99	232.59
	 403	1	18	0.0	307.01	275.3	234.24
	 404	1	18	0.0	305.06	272.9	236.32
	 405	1	3	-1.0	301.58	273.66	237.48
	 406	1	2	0.0	301.33	272.25	241.0
	 407	1	6	0.0	297.58	271.44	240.62
	 408	1	17	0.0	295.26	270.66	243.52
	 409	1	6	0.0	294.16	267.6	241.67
	 410	1	20	0.0	296.13	267.24	238.48
	 411	1	17	0.0	299.68	268.36	237.86
	 412	1	9	1.0	300.56	269.88	234.51
	 413	1	10	0.0	303.81	270.37	232.64
	 414	1	6	0.0	305.59	270.32	229.3
	 415	1	20	0.0	309.13	270.61	227.97
	 416	1	1	0.0	311.19	273.36	226.47
	 417	1	6	0.0	310.3	273.85	222.85
	 418	1	12	0.0	306.79	272.4	223.15
	 419	1	17	0.0	303.45	274.17	222.49
	 420	1	4	-1.0	301.26	272.68	225.22
	 421	1	13	0.0	301.34	270.89	228.45
	 422	1	14	0.0	302.53	267.44	227.55
	 423	1	5	0.0	300.86	266.06	230.57
	 424	1	8	0.0	298.1	266.69	232.99
	 425	1	8	0.0	298.31	263.95	235.51
	 426	1	13	0.0	296.71	262.88	238.7
	 427	1	16	0.0	298.59	263.88	241.78
	 428	1	2	0.0	298.36	260.71	243.77
	 429	1	8	0.0	300.52	258.09	245.45
	 430	1	1	0.0	299.75	254.84	247.22
	 431	1	8	0.0	301.13	253.36	250.45
	 432	1	9	1.0	299.92	250.38	252.47
	 433	1	4	-1.0	297.46	251.7	255.1
	 434	1	16	0.0	296.64	248.34	256.71
	 435	1	1	0.0	298.55	249.3	259.83
	 436	1	9	1.0	298.58	245.84	261.25
	 437	1	18	0.0	302.01	246.49	262.5
	 438	1	6	0.0	303.78	244.12	264.77
	 439	1	3	-1.0	306.69	241.87	263.83
	 440	1	14	0.0	310.26	241.98	265.09
	 441	1	1	0.0	310.06	245.7	265.6
	 442	1	14	0.0	313.13	247.89	265.62
	 443	1	15	1.0	313.54	251.6	266.12
	 444	1	15	1.0	316.01	254.48	266.13
	 445	1	18	0.0	317.95	252.97	263.26
	 446	1	11	0.0	318.16	254.46	259.76
	 447	1	9	1.0	320.12	251.42	258.41
	 448	1	6	0.0	319.35	249.99	254.96
	 449	1	18	0.0	315.87	248.6	254.87
	 450	1	3	-1.0	313.79	246.0	253.06
	 451	1	3	-1.0	310.52	247.29	254.56
	 452	1	10	0.0	309.03	250.06	252.37
	 453	1	3	-1.0	306.41	249.39	249.72
	 454	1	5	0.0	305.09	252.41	247.9
	 455	1	5	0.0	304.32	253.49	244.37
	 456	1	8	0.0	303.52	256.87	242.85
	 457	1	6	0.0	301.51	258.32	239.98
	 458	1	3	-1.0	298.41	257.29	238.1
	 459	1	4	-1.0	299.63	253.71	238.2
	 460	1	1	0.0	299.45	253.99	241.97
	 461	1	8	0.0	295.69	253.93	241.68
	 462	1	4	-1.0	295.89	250.25	240.78
	 463	1	9	1.0	297.98	248.99	243.73
	 464	1	13	0.0	295.94	247.03	246.25
	 465	1	17	0.0	295.85	247.89	249.98
	 466	1	20	0.0	296.5	251.03	248.04
	 467	1	1	0.0	296.04	253.98	250.27
	 468	1	17	0.0	296.42	256.07	247.18
	 469	1	9	1.0	296.42	259.44	248.85
	 470	1	19	0.0	296.84	262.78	247.19
	 471	1	13	0.0	299.22	265.5	248.09
	 472	1	8	0.0	296.58	267.92	246.87
	 473	1	15	1.0	295.59	270.4	249.53
	 474	1	7	0.5	292.39	268.83	250.89
	 475	1	6	0.0	293.07	270.1	254.36
	 476	1	8	0.0	295.72	267.5	254.55
	 477	1	18	0.0	298.58	269.9	254.01
	 478	1	4	-1.0	301.17	268.08	256.14
	 479	1	3	-1.0	301.98	265.63	253.35
	 480	1	19	0.0	304.25	268.34	251.98
	 481	1	3	-1.0	306.96	266.28	253.58
	 482	1	10	0.0	306.1	263.45	251.17
	 483	1	11	0.0	305.74	265.87	248.31
	 484	1	4	-1.0	309.47	266.34	248.19
	 485	1	15	1.0	310.05	262.61	247.76
	 486	1	5	0.0	307.16	262.5	245.37
	 487	1	11	0.0	308.61	265.32	243.35
	 488	1	4	-1.0	312.06	263.85	243.4
	 489	1	14	0.0	310.56	260.76	241.89
	 490	1	18	0.0	308.72	262.8	239.34
	 491	1	8	0.0	311.6	264.85	238.16
	 492	1	5	0.0	314.35	262.3	238.39
	 493	1	9	1.0	312.3	259.2	237.61
	 494	1	20	0.0	309.35	260.11	235.43
	 495	1	10	0.0	310.6	263.26	233.83
	 496	1	15	1.0	314.07	261.8	234.2
	 497	1	1	0.0	315.53	265.28	234.43
	 498	1	4	-1.0	318.07	267.19	236.48
	 499	1	13	0.0	316.95	270.1	238.57
	 500	1	4	-1.0	320.41	271.49	239.12
	 501	1	3	-1.0	320.87	272.27	235.43
	 502	1	7	0.5	317.36	273.47	234.62
	 503	1	20	0.0	315.45	276.58	235.65
	 504	1	5	0.0	311.96	276.36	237.05
	 505	1	10	0.0	308.62	278.06	237.67
	 506	1	10	0.0	306.16	276.6	240.18
	 507	1	17	0.0	302.72	277.67	241.44
	 508	1	4	-1.0	301.0	278.38	244.77
	 509	1	13	0.0	297.63	279.44	246.0
	 510	1	13	0.0	297.09	282.92	247.37
	 511	1	10	0.0	295.98	281.64	250.78
	 512	1	12	0.0	299.27	279.88	251.41
	 513	1	17	0.0	301.18	280.44	254.62
	 514	1	13	0.0	304.93	280.69	254.67
	 515	1	4	-1.0	306.03	277.8	256.89
	 516	1	12	0.0	305.28	274.95	254.54
	 517	1	15	1.0	307.08	276.61	251.65
	 518	1	4	-1.0	309.9	278.08	253.68
	 519	1	20	0.0	310.91	274.72	255.02
	 520	1	17	0.0	310.9	273.3	251.53
	 521	1	1	0.0	313.06	276.23	250.49
	 522	1	4	-1.0	316.0	274.66	252.21
	 523	1	8	0.0	315.08	271.56	250.28
	 524	1	11	0.0	314.93	273.49	247.06
	 525	1	5	0.0	318.39	274.91	247.71
	 526	1	4	-1.0	320.04	271.94	249.4
	 527	1	16	0.0	318.04	268.97	248.2
	 528	1	5	0.0	317.02	270.04	244.75
	 529	1	12	0.0	319.8	272.57	244.81
	 530	1	18	0.0	318.18	274.4	241.94
	 531	1	13	0.0	320.1	277.23	240.4
	 532	1	6	0.0	317.03	279.41	240.39
	 533	1	10	0.0	313.3	279.13	240.69
	 534	1	20	0.0	310.35	281.16	241.84
	 535	1	8	0.0	307.09	280.12	243.34
	 536	1	1	0.0	304.48	282.39	241.91
	 537	1	18	0.0	300.8	282.53	242.53
	 538	1	14	0.0	298.97	280.3	240.1
	 539	1	1	0.0	297.42	283.22	238.31
	 540	1	18	0.0	300.83	284.4	237.19
	 541	1	10	0.0	300.96	281.73	234.5
	 542	1	1	0.0	297.62	282.93	233.16
	 543	1	10	0.0	299.06	286.38	232.62
	 544	1	1	0.0	301.16	285.05	229.78
	 545	1	1	0.0	298.07	283.79	228.0
	 546	1	16	0.0	296.61	287.23	228.14
	 547	1	19	0.0	299.69	288.31	226.42
	 548	1	17	0.0	299.55	285.37	224.03
	 549	1	16	0.0	296.5	287.06	222.77
	 550	1	15	1.0	298.56	289.59	220.76
	 551	1	14	0.0	295.89	292.02	219.48
	 552	1	18	0.0	296.51	295.76	219.46
	 553	1	6	0.0	294.24	296.51	222.43
	 554	1	4	-1.0	296.37	294.16	224.57
	 555	1	15	1.0	298.55	297.04	225.89
	 556	1	17	0.0	297.48	297.55	229.51
	 557	1	10	0.0	297.37	295.95	232.95
	 558	1	17	0.0	293.78	296.79	233.84
	 559	1	6	0.0	290.79	294.49	233.41
	 560	1	17	0.0	289.24	291.68	235.37
	 561	1	18	0.0	289.72	287.97	235.12
	 562	1	8	0.0	287.14	285.49	236.25
	 563	1	3	-1.0	288.62	282.11	236.98
	 564	1	16	0.0	287.02	278.84	238.0
	 565	1	6	0.0	288.23	275.36	238.86
	 566	1	3	-1.0	287.58	272.07	240.65
	 567	1	6	0.0	289.13	272.95	244.0
	 568	1	18	0.0	288.87	276.69	243.84
	 569	1	17	0.0	287.49	279.63	241.85
	 570	1	7	0.5	288.95	283.11	241.78
	 571	1	18	0.0	288.41	286.76	240.89
	 572	1	8	0.0	290.91	289.62	240.97
	 573	1	13	0.0	290.89	293.35	240.9
	 574	1	18	0.0	294.22	293.64	239.05
	 575	1	1	0.0	294.96	297.16	237.85
	 576	1	4	-1.0	298.47	297.75	236.67
	 577	1	6	0.0	298.7	294.52	238.51
	 578	1	20	0.0	297.7	296.0	241.82
	 579	1	18	0.0	294.78	294.81	243.78
	 580	1	8	0.0	292.98	295.2	247.11
	 581	1	6	0.0	292.67	292.34	249.54
	 582	1	16	0.0	288.95	292.47	250.24
	 583	1	2	0.0	288.37	293.15	246.57
	 584	1	8	0.0	290.13	290.03	245.36
	 585	1	9	1.0	287.88	286.99	245.52
	 586	1	7	0.5	289.1	283.56	246.73
	 587	1	8	0.0	285.77	281.79	245.93
	 588	1	13	0.0	285.86	278.4	247.41
	 589	1	8	0.0	282.97	276.92	245.46
	 590	1	1	0.0	284.26	274.52	242.91
	 591	1	6	0.0	283.81	271.31	240.91
	 592	1	15	1.0	284.39	268.77	243.63
	 593	1	3	-1.0	281.39	270.17	245.43
	 594	1	8	0.0	279.18	269.69	242.4
	 595	1	17	0.0	280.33	266.18	241.51
	 596	1	20	0.0	279.4	264.65	244.81
	 597	1	5	0.0	275.99	266.19	244.57
	 598	1	8	0.0	275.51	264.75	241.14
	 599	1	14	0.0	276.32	261.49	242.83
	 600	1	14	0.0	273.05	262.02	244.67
	 601	1	10	0.0	271.39	262.69	241.31
	 602	1	10	0.0	271.99	259.07	240.45
	 603	1	15	1.0	269.24	258.23	242.9
	 604	1	3	-1.0	266.99	259.89	240.42
	 605	1	15	1.0	267.46	257.84	237.23
	 606	1	4	-1.0	270.06	255.14	237.18
	 607	1	18	0.0	272.08	252.38	238.77
	 608	1	6	0.0	274.33	249.4	238.15
	 609	1	8	0.0	277.69	250.74	239.19
	 610	1	13	0.0	280.16	250.33	241.94
	 611	1	13	0.0	280.09	253.24	244.27
	 612	1	4	-1.0	283.55	254.44	243.34
	 613	1	14	0.0	282.82	253.97	239.67
	 614	1	16	0.0	279.64	255.9	240.17
	 615	1	10	0.0	281.53	259.14	240.56
	 616	1	4	-1.0	283.58	258.42	237.47
	 617	1	17	0.0	280.56	257.7	235.31
	 618	1	1	0.0	278.76	260.75	236.56
	 619	1	9	1.0	281.54	263.0	235.34
	 620	1	1	0.0	281.86	261.06	232.14
	 621	1	18	0.0	278.27	261.81	231.31
	 622	1	9	1.0	277.96	265.31	232.7
	 623	1	4	-1.0	280.47	267.4	230.83
	 624	1	15	1.0	279.15	266.98	227.32
	 625	1	20	0.0	275.41	266.99	228.1
	 626	1	16	0.0	274.75	269.56	230.83
	 627	1	20	0.0	273.32	272.99	230.07
	 628	1	18	0.0	271.11	275.7	231.64
	 629	1	2	0.0	267.44	276.47	231.11
	 630	1	13	0.0	265.53	279.65	231.44
	 631	1	3	-1.0	262.68	278.06	233.35
	 632	1	10	0.0	262.45	274.62	234.85
	 633	1	18	0.0	258.72	274.68	234.37
	 634	1	9	1.0	259.06	274.9	230.61
	 635	1	4	-1.0	262.03	272.57	230.57
	 636	1	5	0.0	260.34	269.57	232.13
	 637	1	12	0.0	257.91	269.26	229.25
	 638	1	9	1.0	260.59	268.86	226.62
	 639	1	20	0.0	262.06	265.88	228.37
	 640	1	3	-1.0	258.68	264.36	228.79
	 641	1	17	0.0	257.31	265.05	225.29
	 642	1	3	-1.0	260.0	266.07	222.84
	 643	1	6	0.0	261.86	262.88	222.2
	 644	1	16	0.0	265.44	261.69	222.07
	 645	1	9	1.0	266.85	265.13	221.4
	 646	1	19	0.0	266.04	266.03	224.92
	 647	1	8	0.0	266.07	262.44	226.02
	 648	1	9	1.0	269.34	260.89	225.06
	 649	1	14	0.0	270.69	257.58	226.25
	 650	1	20	0.0	274.14	256.73	227.48
	 651	1	17	0.0	275.88	253.39	227.65
	 652	1	6	0.0	278.77	252.23	229.75
	 653	1	8	0.0	280.01	249.35	231.81
	 654	1	12	0.0	279.15	248.23	235.29
	 655	1	1	0.0	282.57	247.91	236.81
	 656	1	8	0.0	281.54	245.32	239.3
	 657	1	16	0.0	280.84	242.51	236.82
	 658	1	9	1.0	282.36	244.41	233.92
	 659	1	9	1.0	279.04	244.01	232.13
	 660	1	4	-1.0	277.53	246.74	230.01
	 661	1	5	0.0	274.81	248.97	231.32
	 662	1	16	0.0	272.51	251.29	229.44
	 663	1	8	0.0	271.54	254.43	231.26
	 664	1	3	-1.0	269.07	257.18	230.57
	 665	1	18	0.0	269.81	260.87	230.26
	 666	1	6	0.0	267.46	263.79	230.19
	 667	1	20	0.0	266.54	266.39	232.78
	 668	1	4	-1.0	269.81	265.86	234.57
	 669	1	15	1.0	271.54	267.69	231.76
	 670	1	5	0.0	269.73	270.95	232.52
	 671	1	10	0.0	269.62	270.3	236.23
	 672	1	6	0.0	273.35	269.94	236.9
	 673	1	13	0.0	275.1	273.23	236.1
	 674	1	4	-1.0	273.0	275.72	238.12
	 675	1	8	0.0	275.61	276.31	240.84
	 676	1	5	0.0	277.1	279.44	239.26
	 677	1	5	0.0	273.86	281.25	239.98
	 678	1	7	0.5	273.51	278.57	242.69
	 679	1	13	0.0	276.65	278.82	244.94
	 680	1	4	-1.0	274.4	277.97	247.91
	 681	1	5	0.0	274.53	274.5	246.47
	 682	1	1	0.0	278.09	274.14	247.65
	 683	1	12	0.0	277.73	276.61	250.44
	 684	1	13	0.0	274.3	277.34	251.75
	 685	1	3	-1.0	276.02	279.24	254.53
	 686	1	5	0.0	277.32	281.82	252.11
	 687	1	17	0.0	275.18	281.49	249.0
	 688	1	14	0.0	276.06	284.63	246.99
	 689	1	13	0.0	275.56	284.07	243.35
	 690	1	8	0.0	277.97	284.93	240.58
	 691	1	16	0.0	275.99	287.98	239.57
	 692	1	4	-1.0	275.94	289.32	243.09
	 693	1	18	0.0	279.55	288.45	243.66
	 694	1	18	0.0	280.62	290.37	240.62
	 695	1	3	-1.0	278.72	293.36	241.9
	 696	1	4	-1.0	280.37	292.92	245.23
	 697	1	18	0.0	283.72	293.41	243.56
	 698	1	8	0.0	282.71	296.33	241.37
	 699	1	14	0.0	281.38	298.45	244.18
	 700	1	12	0.0	284.87	298.61	245.59
	 701	1	2	0.0	286.48	299.41	242.28
	 702	1	13	0.0	286.38	303.11	241.89
	 703	1	8	0.0	284.35	304.51	239.03
	 704	1	3	-1.0	287.37	305.62	237.02
	 705	1	18	0.0	288.25	301.98	236.75
	 706	1	15	1.0	284.7	300.98	235.9
	 707	1	15	1.0	284.95	302.12	232.33
	 708	1	13	0.0	287.96	299.96	231.94
	 709	1	10	0.0	286.03	297.17	233.61
	 710	1	20	0.0	283.48	297.32	230.89
	 711	1	9	1.0	286.31	297.73	228.47
	 712	1	12	0.0	288.17	294.68	229.57
	 713	1	8	0.0	286.55	291.69	231.2
	 714	1	18	0.0	288.52	288.48	230.94
	 715	1	10	0.0	288.15	284.82	231.87
	 716	1	16	0.0	290.36	281.95	232.95
	 717	1	6	0.0	290.28	278.19	233.17
	 718	1	6	0.0	288.48	275.51	231.21
	 719	1	16	0.0	285.58	276.18	233.5
	 720	1	17	0.0	285.38	279.54	231.77
	 721	1	11	0.0	285.24	277.85	228.34
	 722	1	5	0.0	281.61	276.71	228.86
	 723	1	15	1.0	278.93	277.58	226.37
	 724	1	3	-1.0	275.92	279.84	226.67
	 725	1	5	0.0	275.72	279.55	230.39
	 726	1	6	0.0	277.98	282.54	230.4
	 727	1	15	1.0	275.99	284.13	227.65
	 728	1	15	1.0	272.82	283.75	229.63
	 729	1	10	0.0	274.51	285.12	232.68
	 730	1	14	0.0	276.21	287.93	230.84
	 731	1	15	1.0	272.99	289.17	229.38
	 732	1	3	-1.0	271.32	289.28	232.74
	 733	1	10	0.0	274.44	290.6	234.4
	 734	1	9	1.0	274.62	293.49	232.03
	 735	1	15	1.0	270.95	294.04	232.57
	 736	1	17	0.0	271.73	294.12	236.25
	 737	1	18	0.0	274.4	296.75	235.91
	 738	1	3	-1.0	272.14	298.79	233.74
	 739	1	1	0.0	269.45	298.53	236.36
	 740	1	15	1.0	271.89	299.68	238.99
	 741	1	10	0.0	273.1	302.49	236.74
	 742	1	9	1.0	269.56	303.7	236.21
	 743	1	10	0.0	269.25	304.99	239.75
	 744	1	16	0.0	271.06	308.13	238.63
	 745	1	4	-1.0	267.96	308.91	236.59
	 746	1	4	-1.0	266.57	310.85	239.48
	 747	1	10	0.0	269.02	313.72	239.2
	 748	1	16	0.0	269.15	314.39	235.47
	 749	1	6	0.0	265.77	312.85	235.06
	 750	1	6	0.0	264.88	311.53	231.6
	 751	1	15	1.0	268.27	311.86	229.88
	 752	1	10	0.0	269.2	308.19	230.21
	 753	1	9	1.0	272.19	308.02	227.91
	 754	1	13	0.0	275.4	306.22	228.49
	 755	1	9	1.0	278.85	307.4	227.52
	 756	1	13	0.0	280.22	305.03	225.0
	 757	1	8	0.0	282.6	302.65	226.77
	 758	1	3	-1.0	283.54	299.42	225.05
	 759	1	18	0.0	282.94	295.83	226.06
	 760	1	14	0.0	284.66	292.61	225.11
	 761	1	18	0.0	285.73	289.3	226.62
	 762	1	8	0.0	287.91	286.36	225.67
	 763	1	17	0.0	286.36	283.26	224.23
	 764	1	7	0.5	288.53	280.36	223.19
	 765	1	7	0.5	289.32	276.68	223.62
	 766	1	11	0.0	292.93	277.82	223.77
	 767	1	14	0.0	292.47	278.8	227.37
	 768	1	15	1.0	293.13	275.23	228.41
	 769	1	20	0.0	296.41	274.48	226.58
	 770	1	1	0.0	298.19	277.85	226.7
	 771	1	18	0.0	299.01	277.88	230.42
	 772	1	19	0.0	302.01	275.58	230.22
	 773	1	5	0.0	303.3	277.13	227.06
	 774	1	6	0.0	303.05	280.7	228.24
	 775	1	6	0.0	304.22	279.68	231.67
	 776	1	16	0.0	307.37	278.15	230.31
	 777	1	11	0.0	307.99	281.15	228.14
	 778	1	10	0.0	307.8	283.65	230.92
	 779	1	1	0.0	310.18	281.61	233.01
	 780	1	16	0.0	312.35	281.53	229.91
	 781	1	17	0.0	312.53	285.3	229.66
	 782	1	13	0.0	315.99	286.41	230.48
	 783	1	4	-1.0	314.57	288.92	232.89
	 784	1	5	0.0	313.17	286.09	235.0
	 785	1	20	0.0	316.46	284.5	236.01
	 786	1	14	0.0	317.71	287.14	238.45
	 787	1	18	0.0	314.29	288.17	239.71
	 788	1	2	0.0	313.29	284.67	240.53
	 789	1	7	0.5	315.1	283.49	243.56
	 790	1	17	0.0	318.48	282.24	242.54
	 791	1	9	1.0	320.3	280.09	245.04
	 792	1	9	1.0	322.12	283.15	246.32
	 793	1	3	-1.0	318.87	285.01	246.42
	 794	1	20	0.0	317.57	282.15	248.48
	 795	1	4	-1.0	320.42	282.2	250.92
	 796	1	4	-1.0	319.82	285.87	251.29
	 797	1	8	0.0	316.14	285.21	251.61
	 798	1	6	0.0	315.85	282.12	253.85
	 799	1	13	0.0	319.08	281.1	255.38
	 800	1	16	0.0	320.26	284.44	256.53
	 801	1	8	0.0	316.96	286.03	257.51
	 802	1	2	0.0	314.71	284.12	259.9
	 803	1	15	1.0	316.53	284.47	263.19
	 804	1	7	0.5	318.53	287.33	261.73
	 805	1	12	0.0	315.41	289.43	261.21
	 806	1	13	0.0	312.89	287.81	259.06
	 807	1	18	0.0	311.12	290.99	258.14
	 808	1	5	0.0	313.36	292.68	260.68
	 809	1	6	0.0	310.25	292.19	262.66
	 810	1	18	0.0	306.84	292.28	261.19
	 811	1	11	0.0	307.68	295.01	258.71
	 812	1	16	0.0	310.46	296.33	260.87
	 813	1	11	0.0	290.92	273.96	309.77
	 814	1	1	0.0	288.51	274.08	306.87
	 815	1	20	0.0	288.56	275.13	303.23
	 816	1	7	0.5	286.0	275.52	300.45
	 817	1	16	0.0	285.99	277.08	297.02
	 818	1	5	0.0	282.41	277.56	295.98
	 819	1	10	0.0	283.63	279.04	292.75
	 820	1	18	0.0	287.08	278.89	291.1
	 821	1	4	-1.0	287.59	282.7	290.91
	 822	1	13	0.0	291.06	283.93	291.13
	 823	1	8	0.0	290.86	286.07	294.19
	 824	1	16	0.0	293.31	288.85	293.63
	 825	1	2	0.0	292.09	290.65	296.71
	 826	1	7	0.5	289.56	290.23	299.51
	 827	1	1	0.0	287.62	292.79	301.53
	 828	1	19	0.0	284.75	292.74	303.95
	 829	1	12	0.0	282.35	294.31	306.38
	 830	1	9	1.0	283.5	294.02	309.97
	 831	1	3	-1.0	281.31	290.95	310.28
	 832	1	15	1.0	283.4	289.48	307.5
	 833	1	17	0.0	280.21	288.11	306.04
	 834	1	14	0.0	280.34	289.94	302.72
	 835	1	8	0.0	283.36	289.02	300.68
	 836	1	1	0.0	284.24	291.48	297.98
	 837	1	8	0.0	286.94	290.39	295.61
	 838	1	2	0.0	289.42	291.49	293.0