LAMMPS data file via write_data, version 3 Mar 2020, timestep = 1000000

2353 atoms
20 atom types
36 bonds
1 bond types

-200 200 xlo xhi
-200 200 ylo yhi
-200 200 zlo zhi

Masses

1 71.08
2 103.1
3 115.1
4 129.1
5 147.2
6 57.05
7 137.1
8 113.2
9 128.2
10 113.2
11 131.2
12 114.1
13 97.12
14 128.1
15 156.2
16 87.08
17 101.1
18 99.07
19 186.2
20 163.2

Atoms

	   1	1	11	0.0	264.89	323.34	287.2
	   2	1	3	-1.0	262.04	325.77	286.95
	   3	1	16	0.0	259.91	322.7	286.45
	   4	1	14	0.0	260.17	318.99	287.13
	   5	1	6	0.0	263.03	316.74	286.11
	   6	1	15	1.0	260.75	314.96	283.66
	   7	1	9	1.0	259.23	316.4	280.5
	   8	1	18	0.0	262.61	317.23	279.0
	   9	1	18	0.0	265.06	314.78	277.49
	  10	1	18	0.0	268.51	314.6	275.94
	  11	1	2	0.0	269.67	311.95	273.51
	  12	1	3	-1.0	272.8	311.02	271.62
	  13	1	12	0.0	271.84	309.66	268.24
	  14	1	6	0.0	275.07	307.71	268.17
	  15	1	17	0.0	276.13	305.15	265.59
	  16	1	6	0.0	277.23	302.4	267.95
	  17	1	5	0.0	274.68	303.05	270.62
	  18	1	18	0.0	271.92	305.41	271.46
	  19	1	9	1.0	272.31	307.0	274.87
	  20	1	2	0.0	269.3	308.83	276.21
	  21	1	6	0.0	267.25	309.96	279.2
	  22	1	20	0.0	265.47	312.84	280.91
	  23	1	1	0.0	267.63	315.91	280.68
	  24	1	6	0.0	270.1	315.99	283.54
	  25	1	16	0.0	269.9	312.28	284.23
	  26	1	12	0.0	272.97	310.89	285.95
	  27	1	5	0.0	274.12	309.09	282.83
	  28	1	13	0.0	272.3	308.69	279.62
	  29	1	4	-1.0	269.82	306.77	281.71
	  30	1	7	0.5	269.21	304.17	279.1
	  31	1	8	0.0	271.79	302.9	276.67
	  32	1	5	0.0	271.28	300.42	273.9
	  33	1	13	0.0	272.87	299.48	270.67
	  34	1	1	0.0	271.71	301.44	267.6
	  35	1	10	0.0	270.33	298.18	266.14
	  36	1	18	0.0	266.86	297.29	264.82
	  37	1	6	0.0	265.43	294.17	263.14
	  38	1	15	1.0	262.22	292.37	262.0
	  39	1	13	0.0	262.19	288.56	261.52
	  40	1	8	0.0	263.76	286.7	258.56
	  41	1	8	0.0	265.39	283.24	259.24
	  42	1	15	1.0	268.4	281.89	261.24
	  43	1	16	0.0	267.61	278.34	262.29
	  44	1	17	0.0	267.38	275.65	259.63
	  45	1	17	0.0	266.3	273.53	262.63
	  46	1	9	1.0	263.22	272.59	264.7
	  47	1	18	0.0	264.1	274.48	267.92
	  48	1	6	0.0	262.91	277.67	269.61
	  49	1	12	0.0	259.11	277.7	269.7
	  50	1	8	0.0	259.4	281.18	271.23
	  51	1	4	-1.0	256.09	282.94	270.3
	  52	1	8	0.0	257.17	285.9	272.44
	  53	1	9	1.0	257.72	288.68	269.89
	  54	1	3	-1.0	258.31	289.48	266.2
	  55	1	10	0.0	260.21	292.73	265.68
	  56	1	11	0.0	262.82	294.15	268.0
	  57	1	18	0.0	264.8	297.29	268.66
	  58	1	6	0.0	268.19	297.83	270.28
	  59	1	3	-1.0	268.78	295.96	273.52
	  60	1	4	-1.0	265.94	293.55	272.82
	  61	1	1	0.0	267.31	292.99	269.3
	  62	1	16	0.0	270.73	291.81	270.45
	  63	1	4	-1.0	270.07	288.07	270.77
	  64	1	10	0.0	268.33	287.43	267.45
	  65	1	15	1.0	270.8	287.96	264.63
	  66	1	16	0.0	269.3	286.59	261.37
	  67	1	11	0.0	266.12	285.69	263.19
	  68	1	10	0.0	265.46	289.25	262.3
	  69	1	4	-1.0	266.36	291.03	259.14
	  70	1	18	0.0	268.55	293.55	260.87
	  71	1	12	0.0	269.38	296.74	259.1
	  72	1	20	0.0	271.1	300.08	259.22
	  73	1	13	0.0	270.26	301.89	256.08
	  74	1	11	0.0	272.98	304.44	256.05
	  75	1	4	-1.0	275.95	306.14	254.57
	  76	1	12	0.0	278.58	307.65	256.84
	  77	1	6	0.0	276.41	306.88	259.83
	  78	1	8	0.0	273.67	309.04	258.35
	  79	1	18	0.0	270.45	307.12	257.8
	  80	1	15	1.0	268.66	306.52	254.5
	  81	1	12	0.0	265.18	305.66	255.79
	  82	1	19	0.0	262.3	307.39	257.59
	  83	1	3	-1.0	260.16	304.52	258.98
	  84	1	3	-1.0	262.22	302.03	260.99
	  85	1	11	0.0	263.45	304.94	262.98
	  86	1	9	1.0	259.82	305.72	263.61
	  87	1	7	0.5	259.28	302.22	264.92
	  88	1	10	0.0	262.31	302.79	267.08
	  89	1	19	0.0	260.97	306.14	268.22
	  90	1	3	-1.0	257.65	304.56	269.02
	  91	1	20	0.0	259.53	301.91	270.97
	  92	1	17	0.0	261.74	304.4	272.81
	  93	1	5	0.0	258.72	306.23	274.23
	  94	1	6	0.0	258.0	303.42	276.62
	  95	1	13	0.0	260.02	302.62	279.66
	  96	1	4	-1.0	261.95	300.53	277.19
	  97	1	9	1.0	264.14	303.54	276.6
	  98	1	10	0.0	262.46	306.74	277.93
	  99	1	12	0.0	258.98	306.31	279.47
	 100	1	8	0.0	257.8	309.73	278.24
	 101	1	3	-1.0	255.22	311.73	276.21
	 102	1	17	0.0	256.42	314.47	273.79
	 103	1	15	1.0	253.78	317.14	273.1
	 104	1	12	0.0	253.7	318.44	276.64
	 105	1	2	0.0	257.47	318.27	276.68
	 106	1	9	1.0	260.68	319.38	274.94
	 107	1	8	0.0	263.9	317.67	273.82
	 108	1	10	0.0	267.59	318.29	273.03
	 109	1	10	0.0	269.24	316.63	269.99
	 110	1	17	0.0	272.0	317.14	267.39
	 111	1	4	-1.0	272.58	317.75	263.64
	 112	1	13	0.0	275.37	316.84	261.29
	 113	1	13	0.0	277.55	319.49	259.83
	 114	1	11	0.0	276.55	319.02	256.26
	 115	1	12	0.0	273.21	317.58	256.9
	 116	1	13	0.0	271.08	318.03	253.9
	 117	1	17	0.0	268.5	319.69	256.08
	 118	1	9	1.0	265.52	319.1	253.84
	 119	1	12	0.0	265.25	315.53	255.04
	 120	1	15	1.0	265.51	316.71	258.63
	 121	1	4	-1.0	262.81	319.2	257.86
	 122	1	9	1.0	260.67	316.42	256.55
	 123	1	8	0.0	261.34	314.33	259.61
	 124	1	18	0.0	260.74	317.25	261.93
	 125	1	4	-1.0	257.5	317.84	260.13
	 126	1	18	0.0	256.6	314.24	260.84
	 127	1	11	0.0	257.75	314.62	264.41
	 128	1	5	0.0	255.52	317.64	264.23
	 129	1	4	-1.0	252.8	315.41	263.05
	 130	1	17	0.0	253.38	312.82	265.81
	 131	1	20	0.0	255.48	313.8	268.87
	 132	1	14	0.0	254.85	317.47	268.42
	 133	1	5	0.0	256.94	318.76	271.31
	 134	1	16	0.0	256.04	322.08	272.88
	 135	1	6	0.0	259.64	323.05	272.16
	 136	1	18	0.0	262.84	321.43	270.92
	 137	1	20	0.0	266.57	322.09	270.5
	 138	1	18	0.0	269.17	320.96	267.95
	 139	1	1	0.0	272.82	321.89	267.39
	 140	1	8	0.0	275.88	320.84	265.4
	 141	1	14	0.0	277.16	317.57	266.79
	 142	1	1	0.0	280.66	318.59	267.83
	 143	1	18	0.0	279.75	321.81	269.64
	 144	1	10	0.0	278.01	319.89	272.4
	 145	1	17	0.0	281.34	318.67	273.75
	 146	1	10	0.0	282.59	322.03	275.05
	 147	1	20	0.0	279.55	322.55	277.31
	 148	1	1	0.0	280.54	320.87	280.57
	 149	1	14	0.0	283.64	323.1	280.83
	 150	1	6	0.0	282.59	325.98	278.57
	 151	1	10	0.0	285.62	325.61	276.24
	 152	1	10	0.0	286.57	327.94	273.32
	 153	1	17	0.0	289.35	326.56	271.12
	 154	1	6	0.0	291.49	323.76	269.66
	 155	1	18	0.0	290.24	321.1	267.33
	 156	1	18	0.0	287.21	319.07	268.37
	 157	1	18	0.0	287.65	315.42	267.67
	 158	1	3	-1.0	285.56	312.27	267.84
	 159	1	16	0.0	285.5	308.67	266.61
	 160	1	6	0.0	284.05	305.2	267.27
	 161	1	3	-1.0	282.56	302.66	264.83
	 162	1	6	0.0	280.71	304.79	262.28
	 163	1	18	0.0	282.71	307.98	261.76
	 164	1	17	0.0	285.27	310.47	263.08
	 165	1	7	0.5	285.27	314.3	263.4
	 166	1	8	0.0	287.98	316.99	262.83
	 167	1	2	0.0	286.46	320.49	263.65
	 168	1	13	0.0	288.98	323.29	264.04
	 169	1	18	0.0	287.74	325.82	266.56
	 170	1	20	0.0	288.58	329.19	268.05
	 171	1	4	-1.0	286.53	331.46	270.29
	 172	1	6	0.0	283.86	328.81	269.97
	 173	1	5	0.0	283.66	329.37	266.27
	 174	1	16	0.0	284.61	326.39	264.18
	 175	1	10	0.0	286.32	327.41	261.0
	 176	1	13	0.0	283.85	326.17	258.46
	 177	1	7	0.5	285.77	326.58	255.22
	 178	1	10	0.0	288.69	325.0	257.05
	 179	1	17	0.0	286.72	322.24	258.81
	 180	1	15	1.0	287.48	318.55	258.46
	 181	1	15	1.0	286.05	315.17	259.42
	 182	1	10	0.0	286.65	311.56	258.54
	 183	1	3	-1.0	283.89	309.4	257.11
	 184	1	8	0.0	284.4	306.19	259.03
	 185	1	1	0.0	285.58	304.33	262.13
	 186	1	6	0.0	285.63	300.7	263.41
	 187	1	15	1.0	282.95	299.29	261.11
	 188	1	3	-1.0	284.95	298.95	257.87
	 189	1	8	0.0	288.09	298.33	259.83
	 190	1	17	0.0	286.28	295.24	261.01
	 191	1	15	1.0	285.73	294.28	257.4
	 192	1	20	0.0	289.42	294.62	256.68
	 193	1	10	0.0	290.39	292.98	259.95
	 194	1	8	0.0	288.09	290.05	259.26
	 195	1	9	1.0	289.71	289.69	255.88
	 196	1	10	0.0	292.94	288.87	257.68
	 197	1	10	0.0	291.14	286.06	259.51
	 198	1	10	0.0	289.91	284.23	256.42
	 199	1	10	0.0	293.55	283.7	255.51
	 200	1	15	1.0	293.91	282.03	258.91
	 201	1	6	0.0	291.14	279.65	257.88
	 202	1	20	0.0	288.86	281.96	259.88
	 203	1	1	0.0	286.67	282.03	256.71
	 204	1	5	0.0	283.41	282.13	258.78
	 205	1	12	0.0	280.38	283.97	257.4
	 206	1	7	0.5	280.31	287.63	258.33
	 207	1	16	0.0	276.54	287.73	258.1
	 208	1	1	0.0	276.37	285.9	261.4
	 209	1	3	-1.0	279.98	286.68	262.52
	 210	1	5	0.0	281.11	290.29	261.77
	 211	1	4	-1.0	279.9	291.8	265.04
	 212	1	17	0.0	281.93	289.29	267.0
	 213	1	18	0.0	284.89	291.62	266.64
	 214	1	15	1.0	282.7	294.23	268.25
	 215	1	11	0.0	282.46	292.21	271.44
	 216	1	8	0.0	286.22	292.2	271.9
	 217	1	9	1.0	286.5	295.69	270.5
	 218	1	4	-1.0	284.1	296.98	273.09
	 219	1	9	1.0	285.1	294.89	276.07
	 220	1	10	0.0	288.79	294.03	275.6
	 221	1	2	0.0	290.61	296.05	272.9
	 222	1	20	0.0	293.42	298.58	273.46
	 223	1	18	0.0	296.51	300.02	271.81
	 224	1	6	0.0	300.18	299.97	272.81
	 225	1	20	0.0	302.58	302.93	273.14
	 226	1	12	0.0	305.99	301.73	272.0
	 227	1	8	0.0	304.68	300.63	268.69
	 228	1	4	-1.0	307.89	300.56	266.68
	 229	1	14	0.0	309.72	298.62	269.32
	 230	1	4	-1.0	306.62	296.52	269.56
	 231	1	14	0.0	306.81	295.63	265.88
	 232	1	9	1.0	310.42	294.59	266.25
	 233	1	10	0.0	309.58	292.46	269.25
	 234	1	1	0.0	306.48	290.88	267.83
	 235	1	10	0.0	308.0	288.89	265.0
	 236	1	4	-1.0	311.25	288.19	266.74
	 237	1	17	0.0	309.7	287.04	270.01
	 238	1	17	0.0	306.54	285.6	268.39
	 239	1	18	0.0	305.4	284.68	271.94
	 240	1	10	0.0	303.71	288.07	272.26
	 241	1	18	0.0	300.67	286.86	270.21
	 242	1	4	-1.0	297.26	286.29	271.88
	 243	1	16	0.0	294.04	284.26	271.49
	 244	1	20	0.0	290.38	284.32	272.44
	 245	1	17	0.0	287.57	281.98	273.05
	 246	1	10	0.0	284.77	282.76	270.7
	 247	1	13	0.0	281.8	282.44	273.0
	 248	1	3	-1.0	280.72	279.31	271.19
	 249	1	6	0.0	283.87	278.18	272.91
	 250	1	15	1.0	286.32	278.03	270.03
	 251	1	8	0.0	289.63	279.5	270.97
	 252	1	8	0.0	290.95	281.34	267.96
	 253	1	9	1.0	294.48	282.62	267.65
	 254	1	18	0.0	295.03	286.31	267.0
	 255	1	6	0.0	298.15	288.37	266.55
	 256	1	6	0.0	298.9	292.08	266.5
	 257	1	4	-1.0	295.81	292.7	264.39
	 258	1	15	1.0	293.93	293.38	267.6
	 259	1	5	0.0	295.78	296.71	267.85
	 260	1	4	-1.0	297.45	296.57	264.41
	 261	1	1	0.0	294.17	297.2	262.67
	 262	1	13	0.0	294.51	300.77	263.83
	 263	1	4	-1.0	297.59	301.02	261.6
	 264	1	1	0.0	295.14	301.54	258.77
	 265	1	10	0.0	294.15	304.77	260.47
	 266	1	5	0.0	297.75	305.97	260.14
	 267	1	14	0.0	298.24	304.36	256.77
	 268	1	13	0.0	295.08	303.68	254.94
	 269	1	7	0.5	297.35	302.25	252.23
	 270	1	10	0.0	297.34	299.19	254.42
	 271	1	8	0.0	293.91	298.67	252.81
	 272	1	12	0.0	295.75	299.41	249.58
	 273	1	18	0.0	293.36	302.21	249.21
	 274	1	4	-1.0	296.07	304.75	249.77
	 275	1	6	0.0	296.21	306.94	252.78
	 276	1	18	0.0	298.62	309.19	254.61
	 277	1	6	0.0	296.28	308.57	257.47
	 278	1	18	0.0	294.76	310.77	260.13
	 279	1	1	0.0	298.11	311.52	261.74
	 280	1	4	-1.0	299.33	313.22	258.59
	 281	1	10	0.0	296.01	314.95	258.18
	 282	1	10	0.0	296.5	316.19	261.7
	 283	1	5	0.0	299.86	317.54	260.73
	 284	1	12	0.0	298.28	319.23	257.77
	 285	1	17	0.0	295.54	320.63	259.95
	 286	1	8	0.0	298.04	322.06	262.4
	 287	1	14	0.0	300.06	323.37	259.48
	 288	1	1	0.0	296.95	325.25	258.46
	 289	1	1	0.0	296.49	326.32	262.07
	 290	1	3	-1.0	298.04	329.68	262.89
	 291	1	8	0.0	301.16	330.3	264.93
	 292	1	3	-1.0	299.38	331.01	268.17
	 293	1	17	0.0	296.84	328.24	267.76
	 294	1	15	1.0	299.37	325.66	266.66
	 295	1	16	0.0	301.54	326.53	269.64
	 296	1	4	-1.0	298.63	326.33	272.07
	 297	1	5	0.0	297.78	323.11	270.25
	 298	1	20	0.0	300.64	321.41	272.0
	 299	1	9	1.0	298.42	321.41	275.13
	 300	1	7	0.5	295.24	322.85	273.46
	 301	1	8	0.0	293.08	320.3	271.45
	 302	1	18	0.0	289.89	318.45	272.53
	 303	1	10	0.0	288.54	314.87	272.1
	 304	1	16	0.0	285.31	313.05	272.9
	 305	1	6	0.0	283.39	309.81	273.44
	 306	1	6	0.0	283.96	306.29	274.69
	 307	1	16	0.0	286.19	305.83	271.68
	 308	1	17	0.0	288.54	308.31	273.44
	 309	1	11	0.0	288.83	306.01	276.5
	 310	1	20	0.0	291.81	304.29	274.87
	 311	1	13	0.0	295.24	303.8	276.26
	 312	1	6	0.0	298.66	304.12	274.63
	 313	1	10	0.0	297.64	305.76	271.38
	 314	1	13	0.0	297.73	309.22	272.8
	 315	1	16	0.0	301.23	308.65	274.12
	 316	1	15	1.0	302.24	307.29	270.75
	 317	1	10	0.0	300.78	310.34	269.06
	 318	1	4	-1.0	302.84	312.79	271.1
	 319	1	15	1.0	305.89	310.67	270.6
	 320	1	4	-1.0	305.07	310.89	266.92
	 321	1	10	0.0	304.06	314.59	266.96
	 322	1	9	1.0	307.35	315.75	268.31
	 323	1	14	0.0	308.93	314.23	265.2
	 324	1	10	0.0	307.06	315.65	262.2
	 325	1	20	0.0	307.39	319.11	263.56
	 326	1	10	0.0	311.07	318.67	264.26
	 327	1	4	-1.0	311.71	317.03	260.95
	 328	1	15	1.0	309.65	319.22	258.67
	 329	1	18	0.0	309.41	322.58	260.39
	 330	1	10	0.0	312.18	322.64	262.95
	 331	1	9	1.0	314.35	320.97	260.42
	 332	1	6	0.0	316.68	319.88	263.16
	 333	1	3	-1.0	315.99	322.26	266.06
	 334	1	18	0.0	315.36	320.05	269.16
	 335	1	4	-1.0	315.83	322.31	272.21
	 336	1	9	1.0	312.17	323.32	272.87
	 337	1	10	0.0	310.52	319.91	272.37
	 338	1	16	0.0	309.6	319.31	276.03
	 339	1	9	1.0	309.47	323.04	276.59
	 340	1	5	0.0	306.35	323.04	274.58
	 341	1	9	1.0	304.11	321.89	277.41
	 342	1	8	0.0	302.43	318.58	276.46
	 343	1	15	1.0	299.54	317.99	278.98
	 344	1	8	0.0	296.96	315.3	278.05
	 345	1	4	-1.0	293.53	315.98	276.46
	 346	1	3	-1.0	291.07	313.18	277.33
	 347	1	13	0.0	289.57	312.69	280.75
	 348	1	13	0.0	287.39	309.98	282.22
	 349	1	15	1.0	284.36	312.24	281.77
	 350	1	15	1.0	284.6	311.4	278.09
	 351	1	9	1.0	282.61	308.26	278.75
	 352	1	7	0.5	279.42	310.02	280.03
	 353	1	11	0.0	279.85	313.18	277.95
	 354	1	18	0.0	278.14	311.55	275.02
	 355	1	5	0.0	274.95	312.51	276.89
	 356	1	10	0.0	276.44	314.68	279.62
	 357	1	6	0.0	278.02	317.04	277.19
	 358	1	6	0.0	274.48	317.88	276.14
	 359	1	1	0.0	272.98	317.87	279.62
	 360	1	18	0.0	275.0	320.8	280.93
	 361	1	10	0.0	273.24	323.12	278.48
	 362	1	1	0.0	269.78	322.02	279.6
	 363	1	3	-1.0	270.79	322.93	283.1
	 364	1	8	0.0	270.82	326.57	281.96
	 365	1	11	0.0	268.4	326.26	278.98
	 366	1	9	1.0	265.13	324.54	279.96
	 367	1	3	-1.0	263.4	327.79	280.92
	 368	1	9	1.0	264.62	329.59	277.81
	 369	1	3	-1.0	262.22	329.99	274.93
	 370	1	12	0.0	265.14	332.01	273.77
	 371	1	5	0.0	266.75	328.63	273.11
	 372	1	19	0.0	263.84	326.41	272.22
	 373	1	11	0.0	262.88	325.92	268.61
	 374	1	17	0.0	259.27	325.0	268.18
	 375	1	15	1.0	256.6	322.93	266.51
	 376	1	14	0.0	254.84	326.21	265.92
	 377	1	4	-1.0	257.73	327.41	263.83
	 378	1	20	0.0	257.3	324.36	261.67
	 379	1	14	0.0	253.54	324.79	261.47
	 380	1	4	-1.0	254.06	328.38	260.43
	 381	1	9	1.0	256.1	326.95	257.6
	 382	1	6	0.0	258.76	329.18	259.02
	 383	1	18	0.0	262.18	329.13	257.42
	 384	1	15	1.0	263.52	327.34	260.44
	 385	1	18	0.0	262.04	326.14	263.71
	 386	1	10	0.0	264.76	328.26	265.36
	 387	1	4	-1.0	265.52	331.95	265.14
	 388	1	9	1.0	267.48	333.21	262.16
	 389	1	10	0.0	270.05	335.26	264.09
	 390	1	6	0.0	271.11	334.18	267.55
	 391	1	18	0.0	269.3	336.24	270.17
	 392	1	17	0.0	271.25	334.86	273.1
	 393	1	18	0.0	274.51	332.99	273.16
	 394	1	15	1.0	274.38	329.31	272.33
	 395	1	11	0.0	321.76	282.49	232.59
	 396	1	1	0.0	320.12	279.23	233.56
	 397	1	6	0.0	322.19	276.87	235.39
	 398	1	15	1.0	323.37	274.37	232.82
	 399	1	10	0.0	319.77	274.19	231.71
	 400	1	13	0.0	316.95	276.66	231.6
	 401	1	1	0.0	313.74	277.22	233.56
	 402	1	2	0.0	310.72	274.92	233.58
	 403	1	18	0.0	307.32	275.16	235.21
	 404	1	18	0.0	305.42	272.77	237.36
	 405	1	3	-1.0	301.92	273.62	238.45
	 406	1	2	0.0	301.66	272.07	241.92
	 407	1	6	0.0	297.87	271.31	241.67
	 408	1	17	0.0	295.69	270.36	244.66
	 409	1	6	0.0	294.45	267.42	242.69
	 410	1	20	0.0	296.66	266.91	239.65
	 411	1	17	0.0	300.15	268.21	239.0
	 412	1	9	1.0	300.98	269.6	235.57
	 413	1	10	0.0	304.2	270.24	233.66
	 414	1	6	0.0	306.02	270.12	230.31
	 415	1	20	0.0	309.6	270.42	229.01
	 416	1	1	0.0	311.74	273.15	227.55
	 417	1	6	0.0	310.84	273.62	223.91
	 418	1	12	0.0	307.31	272.17	224.1
	 419	1	17	0.0	303.93	273.9	223.5
	 420	1	4	-1.0	301.74	272.36	226.2
	 421	1	13	0.0	301.79	270.6	229.5
	 422	1	14	0.0	302.96	267.16	228.58
	 423	1	5	0.0	301.37	265.88	231.72
	 424	1	8	0.0	298.48	266.54	234.04
	 425	1	8	0.0	298.7	263.77	236.6
	 426	1	13	0.0	297.27	262.58	239.87
	 427	1	16	0.0	299.02	263.81	242.96
	 428	1	2	0.0	298.81	260.59	244.94
	 429	1	8	0.0	301.03	258.05	246.76
	 430	1	1	0.0	300.31	254.73	248.51
	 431	1	8	0.0	301.67	253.27	251.78
	 432	1	9	1.0	300.37	250.45	253.99
	 433	1	4	-1.0	298.23	251.81	256.88
	 434	1	16	0.0	297.2	248.36	258.26
	 435	1	1	0.0	298.78	249.25	261.63
	 436	1	9	1.0	299.55	245.78	262.99
	 437	1	18	0.0	302.81	246.99	264.35
	 438	1	6	0.0	304.68	244.1	265.74
	 439	1	3	-1.0	307.67	241.77	266.06
	 440	1	14	0.0	311.43	241.84	266.71
	 441	1	1	0.0	311.31	245.49	267.32
	 442	1	14	0.0	313.89	248.25	267.34
	 443	1	15	1.0	314.13	252.01	267.79
	 444	1	15	1.0	316.61	254.91	267.61
	 445	1	18	0.0	318.63	253.39	264.76
	 446	1	11	0.0	318.71	254.72	261.18
	 447	1	9	1.0	320.68	251.66	259.88
	 448	1	6	0.0	319.94	250.01	256.5
	 449	1	18	0.0	316.37	248.84	256.32
	 450	1	3	-1.0	314.26	245.92	255.04
	 451	1	3	-1.0	311.07	247.55	256.33
	 452	1	10	0.0	309.49	250.1	253.96
	 453	1	3	-1.0	306.88	249.41	251.28
	 454	1	5	0.0	305.63	252.39	249.36
	 455	1	5	0.0	304.89	253.45	245.8
	 456	1	8	0.0	304.03	256.79	244.15
	 457	1	6	0.0	301.98	258.24	241.28
	 458	1	3	-1.0	298.94	257.11	239.35
	 459	1	4	-1.0	300.18	253.52	239.55
	 460	1	1	0.0	300.01	253.79	243.35
	 461	1	8	0.0	296.24	253.81	243.03
	 462	1	4	-1.0	296.47	250.08	242.22
	 463	1	9	1.0	298.5	248.89	245.26
	 464	1	13	0.0	296.5	246.92	247.86
	 465	1	17	0.0	296.65	247.66	251.67
	 466	1	20	0.0	297.5	250.73	249.73
	 467	1	1	0.0	296.57	253.83	251.56
	 468	1	17	0.0	296.91	255.94	248.42
	 469	1	9	1.0	296.89	259.31	250.09
	 470	1	19	0.0	297.27	262.67	248.42
	 471	1	13	0.0	299.63	265.44	249.32
	 472	1	8	0.0	297.0	267.81	247.96
	 473	1	15	1.0	295.93	270.39	250.52
	 474	1	7	0.5	292.71	269.04	252.04
	 475	1	6	0.0	293.33	269.99	255.64
	 476	1	8	0.0	295.95	267.35	255.52
	 477	1	18	0.0	298.83	269.79	255.02
	 478	1	4	-1.0	301.51	268.18	257.22
	 479	1	3	-1.0	302.51	265.64	254.59
	 480	1	19	0.0	304.65	268.38	253.11
	 481	1	3	-1.0	307.34	266.3	254.75
	 482	1	10	0.0	306.52	263.46	252.34
	 483	1	11	0.0	306.16	265.89	249.47
	 484	1	4	-1.0	309.89	266.36	249.37
	 485	1	15	1.0	310.58	262.64	248.94
	 486	1	5	0.0	307.66	262.44	246.57
	 487	1	11	0.0	309.07	265.28	244.52
	 488	1	4	-1.0	312.52	263.83	244.61
	 489	1	14	0.0	311.01	260.75	243.07
	 490	1	18	0.0	309.17	262.8	240.5
	 491	1	8	0.0	312.11	264.85	239.4
	 492	1	5	0.0	314.85	262.27	239.57
	 493	1	9	1.0	312.77	259.18	238.78
	 494	1	20	0.0	309.77	260.04	236.64
	 495	1	10	0.0	311.01	263.16	234.94
	 496	1	15	1.0	314.47	261.67	235.36
	 497	1	1	0.0	315.99	265.14	235.59
	 498	1	4	-1.0	318.5	267.19	237.59
	 499	1	13	0.0	317.36	270.14	239.66
	 500	1	4	-1.0	320.82	271.55	240.28
	 501	1	3	-1.0	321.26	272.25	236.56
	 502	1	7	0.5	317.77	273.48	235.6
	 503	1	20	0.0	315.8	276.57	236.68
	 504	1	5	0.0	312.26	276.36	238.04
	 505	1	10	0.0	308.9	278.04	238.61
	 506	1	10	0.0	306.42	276.54	241.11
	 507	1	17	0.0	302.96	277.57	242.38
	 508	1	4	-1.0	301.14	278.36	245.66
	 509	1	13	0.0	297.71	279.44	246.8
	 510	1	13	0.0	297.04	282.95	248.04
	 511	1	10	0.0	296.04	281.69	251.5
	 512	1	12	0.0	299.4	280.03	252.2
	 513	1	17	0.0	301.26	280.44	255.49
	 514	1	13	0.0	305.02	280.73	255.6
	 515	1	4	-1.0	306.31	277.88	257.79
	 516	1	12	0.0	305.51	275.0	255.5
	 517	1	15	1.0	307.31	276.65	252.58
	 518	1	4	-1.0	310.15	278.17	254.57
	 519	1	20	0.0	311.22	274.88	256.06
	 520	1	17	0.0	311.2	273.43	252.58
	 521	1	1	0.0	313.39	276.34	251.53
	 522	1	4	-1.0	316.38	274.8	253.23
	 523	1	8	0.0	315.44	271.68	251.35
	 524	1	11	0.0	315.2	273.61	248.11
	 525	1	5	0.0	318.7	275.01	248.66
	 526	1	4	-1.0	320.4	272.1	250.46
	 527	1	16	0.0	318.44	269.07	249.35
	 528	1	5	0.0	317.36	270.12	245.89
	 529	1	12	0.0	320.1	272.72	245.97
	 530	1	18	0.0	318.56	274.5	243.0
	 531	1	13	0.0	320.42	277.33	241.39
	 532	1	6	0.0	317.31	279.48	241.34
	 533	1	10	0.0	313.54	279.17	241.64
	 534	1	20	0.0	310.54	281.11	242.82
	 535	1	8	0.0	307.23	280.09	244.33
	 536	1	1	0.0	304.64	282.34	242.75
	 537	1	18	0.0	300.93	282.54	243.37
	 538	1	14	0.0	299.16	280.19	240.98
	 539	1	1	0.0	297.5	282.98	239.01
	 540	1	18	0.0	300.92	284.25	237.96
	 541	1	10	0.0	301.14	281.54	235.32
	 542	1	1	0.0	297.77	282.59	233.89
	 543	1	10	0.0	299.1	286.08	233.32
	 544	1	1	0.0	301.29	284.74	230.54
	 545	1	1	0.0	298.25	283.38	228.74
	 546	1	16	0.0	296.68	286.82	228.73
	 547	1	19	0.0	299.87	287.88	226.93
	 548	1	17	0.0	299.82	284.83	224.72
	 549	1	16	0.0	296.69	286.4	223.42
	 550	1	15	1.0	298.63	289.14	221.59
	 551	1	14	0.0	295.91	291.26	219.86
	 552	1	18	0.0	296.24	295.03	219.52
	 553	1	6	0.0	294.11	295.9	222.62
	 554	1	4	-1.0	296.21	293.6	224.88
	 555	1	15	1.0	298.16	296.64	226.22
	 556	1	17	0.0	297.16	297.16	229.87
	 557	1	10	0.0	296.87	295.43	233.26
	 558	1	17	0.0	293.28	296.46	234.06
	 559	1	6	0.0	290.32	294.09	233.68
	 560	1	17	0.0	288.9	291.19	235.65
	 561	1	18	0.0	289.64	287.49	235.55
	 562	1	8	0.0	287.1	284.97	236.71
	 563	1	3	-1.0	288.73	281.67	237.6
	 564	1	16	0.0	287.27	278.32	238.6
	 565	1	6	0.0	288.52	274.85	239.58
	 566	1	3	-1.0	287.99	271.63	241.59
	 567	1	6	0.0	289.33	272.63	245.01
	 568	1	18	0.0	289.15	276.36	244.55
	 569	1	17	0.0	287.67	279.18	242.45
	 570	1	7	0.5	288.95	282.75	242.34
	 571	1	18	0.0	288.27	286.38	241.37
	 572	1	8	0.0	290.66	289.32	241.44
	 573	1	13	0.0	290.39	293.09	241.14
	 574	1	18	0.0	293.71	293.55	239.32
	 575	1	1	0.0	294.5	296.97	237.98
	 576	1	4	-1.0	298.02	297.44	236.79
	 577	1	6	0.0	298.77	294.6	239.18
	 578	1	20	0.0	297.28	296.35	242.22
	 579	1	18	0.0	294.34	294.8	244.1
	 580	1	8	0.0	292.34	295.13	247.36
	 581	1	6	0.0	292.19	292.35	249.92
	 582	1	16	0.0	288.46	292.2	250.61
	 583	1	2	0.0	287.84	292.85	246.9
	 584	1	8	0.0	289.82	289.87	245.7
	 585	1	9	1.0	287.74	286.72	246.02
	 586	1	7	0.5	289.05	283.32	247.21
	 587	1	8	0.0	285.86	281.36	246.34
	 588	1	13	0.0	285.97	278.06	248.07
	 589	1	8	0.0	283.15	276.41	246.11
	 590	1	1	0.0	284.59	273.96	243.64
	 591	1	6	0.0	284.24	270.68	241.69
	 592	1	15	1.0	284.83	268.22	244.5
	 593	1	3	-1.0	281.76	269.65	246.18
	 594	1	8	0.0	279.64	269.02	243.1
	 595	1	17	0.0	280.84	265.5	242.34
	 596	1	20	0.0	279.79	264.06	245.68
	 597	1	5	0.0	276.39	265.61	245.29
	 598	1	8	0.0	276.1	263.97	241.91
	 599	1	14	0.0	276.93	260.79	243.78
	 600	1	14	0.0	273.55	261.31	245.45
	 601	1	10	0.0	271.97	261.82	242.01
	 602	1	10	0.0	272.74	258.18	241.36
	 603	1	15	1.0	269.85	257.35	243.69
	 604	1	3	-1.0	267.68	258.94	241.07
	 605	1	15	1.0	268.31	256.62	238.09
	 606	1	4	-1.0	271.12	254.09	238.11
	 607	1	18	0.0	273.12	251.34	239.79
	 608	1	6	0.0	275.61	248.46	239.57
	 609	1	8	0.0	278.88	249.98	240.73
	 610	1	13	0.0	281.36	249.76	243.54
	 611	1	13	0.0	280.84	252.79	245.69
	 612	1	4	-1.0	284.26	254.2	244.81
	 613	1	14	0.0	283.86	253.46	241.12
	 614	1	16	0.0	280.56	255.22	241.5
	 615	1	10	0.0	282.3	258.6	241.71
	 616	1	4	-1.0	284.46	257.8	238.72
	 617	1	17	0.0	281.54	256.87	236.51
	 618	1	1	0.0	279.62	259.92	237.63
	 619	1	9	1.0	282.33	262.19	236.26
	 620	1	1	0.0	282.81	260.05	233.22
	 621	1	18	0.0	279.26	260.76	232.29
	 622	1	9	1.0	278.84	264.32	233.52
	 623	1	4	-1.0	281.31	266.47	231.63
	 624	1	15	1.0	280.23	265.77	228.09
	 625	1	20	0.0	276.43	265.79	228.7
	 626	1	16	0.0	275.52	268.36	231.38
	 627	1	20	0.0	274.09	271.82	230.64
	 628	1	18	0.0	271.66	274.5	231.97
	 629	1	2	0.0	267.96	275.1	231.3
	 630	1	13	0.0	265.93	278.24	231.4
	 631	1	3	-1.0	263.07	276.66	233.3
	 632	1	10	0.0	262.99	273.25	234.89
	 633	1	18	0.0	259.27	273.12	234.28
	 634	1	9	1.0	259.68	273.24	230.53
	 635	1	4	-1.0	262.75	271.03	230.59
	 636	1	5	0.0	261.17	268.01	232.22
	 637	1	12	0.0	258.89	267.49	229.23
	 638	1	9	1.0	261.61	267.12	226.65
	 639	1	20	0.0	263.15	264.26	228.53
	 640	1	3	-1.0	259.76	262.76	229.05
	 641	1	17	0.0	258.63	263.03	225.39
	 642	1	3	-1.0	261.28	264.24	222.94
	 643	1	6	0.0	263.38	261.22	222.34
	 644	1	16	0.0	267.01	260.19	222.57
	 645	1	9	1.0	268.38	263.64	221.89
	 646	1	19	0.0	267.23	264.35	225.36
	 647	1	8	0.0	267.23	260.75	226.55
	 648	1	9	1.0	270.61	259.34	225.77
	 649	1	14	0.0	271.99	256.13	227.22
	 650	1	20	0.0	275.44	255.36	228.57
	 651	1	17	0.0	277.31	252.09	228.93
	 652	1	6	0.0	280.21	251.07	231.12
	 653	1	8	0.0	281.46	248.4	233.46
	 654	1	12	0.0	280.51	247.34	236.94
	 655	1	1	0.0	283.95	247.26	238.51
	 656	1	8	0.0	282.85	244.8	241.13
	 657	1	16	0.0	283.69	241.99	238.76
	 658	1	9	1.0	284.39	243.94	235.56
	 659	1	9	1.0	281.06	243.14	233.87
	 660	1	4	-1.0	279.14	245.61	231.74
	 661	1	5	0.0	276.31	247.86	232.84
	 662	1	16	0.0	274.03	249.94	230.63
	 663	1	8	0.0	272.71	253.05	232.28
	 664	1	3	-1.0	270.3	255.85	231.59
	 665	1	18	0.0	270.93	259.51	230.92
	 666	1	6	0.0	268.47	262.35	230.71
	 667	1	20	0.0	267.39	265.05	233.15
	 668	1	4	-1.0	270.61	264.67	235.11
	 669	1	15	1.0	272.36	266.49	232.27
	 670	1	5	0.0	270.48	269.75	232.84
	 671	1	10	0.0	270.2	269.16	236.55
	 672	1	6	0.0	273.92	268.92	237.37
	 673	1	13	0.0	275.68	272.24	236.62
	 674	1	4	-1.0	273.46	274.77	238.45
	 675	1	8	0.0	275.95	275.53	241.29
	 676	1	5	0.0	277.37	278.65	239.65
	 677	1	5	0.0	274.02	280.33	240.16
	 678	1	7	0.5	273.74	277.85	243.09
	 679	1	13	0.0	276.86	278.15	245.39
	 680	1	4	-1.0	274.52	277.23	248.28
	 681	1	5	0.0	274.79	273.72	246.89
	 682	1	1	0.0	278.34	273.55	248.22
	 683	1	12	0.0	277.86	276.17	250.87
	 684	1	13	0.0	274.36	276.71	252.12
	 685	1	3	-1.0	276.03	278.63	254.95
	 686	1	5	0.0	277.26	281.3	252.55
	 687	1	17	0.0	275.27	280.8	249.34
	 688	1	14	0.0	275.98	283.91	247.22
	 689	1	13	0.0	275.58	283.27	243.56
	 690	1	8	0.0	277.9	284.16	240.72
	 691	1	16	0.0	275.88	287.19	239.72
	 692	1	4	-1.0	275.68	288.58	243.22
	 693	1	18	0.0	279.31	287.8	243.86
	 694	1	18	0.0	280.31	289.74	240.79
	 695	1	3	-1.0	278.26	292.67	242.03
	 696	1	4	-1.0	279.88	292.29	245.44
	 697	1	18	0.0	283.24	292.94	243.83
	 698	1	8	0.0	282.12	295.74	241.52
	 699	1	14	0.0	280.67	297.84	244.29
	 700	1	12	0.0	284.16	298.22	245.69
	 701	1	2	0.0	285.78	298.95	242.34
	 702	1	13	0.0	285.35	302.64	241.91
	 703	1	8	0.0	283.31	303.99	239.0
	 704	1	3	-1.0	286.22	305.13	236.87
	 705	1	18	0.0	287.34	301.5	236.76
	 706	1	15	1.0	283.85	300.31	235.87
	 707	1	15	1.0	284.11	301.37	232.27
	 708	1	13	0.0	287.26	299.35	232.0
	 709	1	10	0.0	285.45	296.5	233.7
	 710	1	20	0.0	282.94	296.59	230.92
	 711	1	9	1.0	285.85	297.03	228.56
	 712	1	12	0.0	287.79	294.07	229.82
	 713	1	8	0.0	286.28	291.06	231.57
	 714	1	18	0.0	288.42	287.9	231.37
	 715	1	10	0.0	288.27	284.22	232.36
	 716	1	16	0.0	290.53	281.45	233.66
	 717	1	6	0.0	290.6	277.66	233.85
	 718	1	6	0.0	288.87	274.88	231.94
	 719	1	16	0.0	285.92	275.54	234.2
	 720	1	17	0.0	285.67	278.85	232.32
	 721	1	11	0.0	285.71	277.16	228.88
	 722	1	5	0.0	282.1	275.91	229.3
	 723	1	15	1.0	279.33	276.25	226.75
	 724	1	3	-1.0	276.4	278.67	226.99
	 725	1	5	0.0	276.05	278.45	230.73
	 726	1	6	0.0	278.23	281.51	230.67
	 727	1	15	1.0	276.21	283.01	227.87
	 728	1	15	1.0	273.03	282.51	229.8
	 729	1	10	0.0	274.65	284.01	232.85
	 730	1	14	0.0	276.25	286.86	230.98
	 731	1	15	1.0	273.02	287.96	229.41
	 732	1	3	-1.0	271.25	287.99	232.75
	 733	1	10	0.0	274.22	289.54	234.51
	 734	1	9	1.0	274.28	292.28	231.93
	 735	1	15	1.0	270.6	292.73	232.48
	 736	1	17	0.0	271.35	292.95	236.17
	 737	1	18	0.0	273.85	295.76	235.77
	 738	1	3	-1.0	271.48	297.5	233.44
	 739	1	1	0.0	268.78	297.2	236.06
	 740	1	15	1.0	271.1	298.46	238.75
	 741	1	10	0.0	272.19	301.38	236.61
	 742	1	9	1.0	268.66	302.46	235.61
	 743	1	10	0.0	267.83	303.64	239.1
	 744	1	16	0.0	269.58	306.87	238.11
	 745	1	4	-1.0	266.53	307.61	235.95
	 746	1	4	-1.0	265.15	309.38	238.94
	 747	1	10	0.0	267.45	312.39	238.66
	 748	1	16	0.0	267.49	313.27	234.96
	 749	1	6	0.0	264.28	311.42	234.39
	 750	1	6	0.0	263.65	309.89	230.97
	 751	1	15	1.0	267.08	310.5	229.42
	 752	1	10	0.0	268.04	306.8	229.45
	 753	1	9	1.0	271.26	306.66	227.44
	 754	1	13	0.0	274.55	304.98	228.07
	 755	1	9	1.0	277.87	306.53	227.19
	 756	1	13	0.0	279.7	304.34	224.81
	 757	1	8	0.0	281.7	301.69	226.65
	 758	1	3	-1.0	283.18	298.54	225.14
	 759	1	18	0.0	282.62	294.9	226.03
	 760	1	14	0.0	284.55	291.71	225.29
	 761	1	18	0.0	285.77	288.52	226.99
	 762	1	8	0.0	288.09	285.6	226.26
	 763	1	17	0.0	286.69	282.51	224.6
	 764	1	7	0.5	288.96	279.59	223.78
	 765	1	7	0.5	289.8	275.93	224.37
	 766	1	11	0.0	293.38	277.2	224.5
	 767	1	14	0.0	292.79	278.27	228.07
	 768	1	15	1.0	293.55	274.7	229.17
	 769	1	20	0.0	296.89	274.03	227.4
	 770	1	1	0.0	298.59	277.43	227.53
	 771	1	18	0.0	299.35	277.57	231.28
	 772	1	19	0.0	302.4	275.33	231.22
	 773	1	5	0.0	303.72	276.82	228.02
	 774	1	6	0.0	303.36	280.42	229.09
	 775	1	6	0.0	304.51	279.5	232.57
	 776	1	16	0.0	307.71	277.99	231.26
	 777	1	11	0.0	308.3	280.97	229.03
	 778	1	10	0.0	307.96	283.46	231.83
	 779	1	1	0.0	310.43	281.54	233.96
	 780	1	16	0.0	312.63	281.48	230.86
	 781	1	17	0.0	312.68	285.25	230.54
	 782	1	13	0.0	316.15	286.47	231.33
	 783	1	4	-1.0	314.52	288.93	233.7
	 784	1	5	0.0	313.3	286.07	235.87
	 785	1	20	0.0	316.63	284.54	236.94
	 786	1	14	0.0	317.88	287.18	239.41
	 787	1	18	0.0	314.45	288.23	240.68
	 788	1	2	0.0	313.39	284.72	241.43
	 789	1	7	0.5	315.27	283.57	244.45
	 790	1	17	0.0	318.69	282.35	243.46
	 791	1	9	1.0	320.49	280.25	246.04
	 792	1	9	1.0	322.24	283.33	247.41
	 793	1	3	-1.0	318.97	285.19	247.35
	 794	1	20	0.0	317.71	282.31	249.45
	 795	1	4	-1.0	320.58	282.5	251.88
	 796	1	4	-1.0	319.81	286.18	252.23
	 797	1	8	0.0	316.14	285.32	252.57
	 798	1	6	0.0	316.13	282.26	254.9
	 799	1	13	0.0	319.4	281.26	256.41
	 800	1	16	0.0	320.44	284.7	257.36
	 801	1	8	0.0	317.08	286.21	258.38
	 802	1	2	0.0	314.65	284.46	260.71
	 803	1	15	1.0	316.41	284.78	264.06
	 804	1	7	0.5	318.4	287.65	262.56
	 805	1	12	0.0	315.4	289.92	261.82
	 806	1	13	0.0	312.83	288.02	259.98
	 807	1	18	0.0	311.04	291.14	258.9
	 808	1	5	0.0	313.19	293.1	261.33
	 809	1	6	0.0	310.2	292.34	263.43
	 810	1	18	0.0	306.85	292.5	261.76
	 811	1	11	0.0	307.9	295.11	259.2
	 812	1	16	0.0	310.2	296.83	261.6
	 813	1	11	0.0	290.2	274.69	310.65
	 814	1	1	0.0	287.89	274.76	307.65
	 815	1	20	0.0	287.86	275.74	303.97
	 816	1	7	0.5	285.49	275.95	301.0
	 817	1	16	0.0	285.5	277.47	297.52
	 818	1	5	0.0	281.87	277.86	296.54
	 819	1	10	0.0	283.09	279.26	293.25
	 820	1	18	0.0	286.64	279.21	291.79
	 821	1	4	-1.0	287.15	283.01	291.59
	 822	1	13	0.0	290.63	284.33	291.62
	 823	1	8	0.0	290.24	286.47	294.67
	 824	1	16	0.0	292.66	289.28	294.09
	 825	1	2	0.0	291.44	291.09	297.19
	 826	1	7	0.5	288.8	290.71	299.91
	 827	1	1	0.0	286.8	293.25	301.94
	 828	1	19	0.0	283.83	293.28	304.26
	 829	1	12	0.0	281.34	294.84	306.6
	 830	1	9	1.0	282.58	294.68	310.16
	 831	1	3	-1.0	280.46	291.55	310.63
	 832	1	15	1.0	282.6	289.94	307.93
	 833	1	17	0.0	279.44	288.63	306.32
	 834	1	14	0.0	279.49	290.26	302.89
	 835	1	8	0.0	282.6	289.39	301.01
	 836	1	1	0.0	283.5	291.84	298.29
	 837	1	8	0.0	286.28	290.79	295.97
	 838	1	2	0.0	288.79	291.91	293.38
	 839	1	13	0.0	287.79	289.62	290.56