LAMMPS data file via write_data, version 3 Mar 2020, timestep = 1000000

2779 atoms
20 atom types
72 bonds
1 bond types

-200 200 xlo xhi
-200 200 ylo yhi
-200 200 zlo zhi

Masses

1 71.08
2 103.1
3 115.1
4 129.1
5 147.2
6 57.05
7 137.1
8 113.2
9 128.2
10 113.2
11 131.2
12 114.1
13 97.12
14 128.1
15 156.2
16 87.08
17 101.1
18 99.07
19 186.2
20 163.2

Atoms

	   1	1	11	0.0	266.1	323.1	289.11
	   2	1	3	-1.0	263.18	325.41	289.22
	   3	1	16	0.0	261.05	322.41	288.44
	   4	1	14	0.0	261.38	318.76	289.3
	   5	1	6	0.0	264.24	316.61	288.11
	   6	1	15	1.0	261.88	314.8	285.79
	   7	1	9	1.0	260.21	316.24	282.73
	   8	1	18	0.0	263.52	317.0	281.09
	   9	1	18	0.0	265.88	314.58	279.47
	  10	1	18	0.0	269.23	314.43	277.73
	  11	1	2	0.0	270.26	311.78	275.27
	  12	1	3	-1.0	273.26	310.92	273.2
	  13	1	12	0.0	272.24	309.49	269.9
	  14	1	6	0.0	275.47	307.57	269.7
	  15	1	17	0.0	276.32	305.1	267.0
	  16	1	6	0.0	277.56	302.36	269.29
	  17	1	5	0.0	275.11	302.93	272.05
	  18	1	18	0.0	272.43	305.29	273.12
	  19	1	9	1.0	272.93	306.86	276.51
	  20	1	2	0.0	269.98	308.68	277.96
	  21	1	6	0.0	268.15	309.75	281.08
	  22	1	20	0.0	266.46	312.62	282.87
	  23	1	1	0.0	268.6	315.69	282.52
	  24	1	6	0.0	271.12	315.83	285.3
	  25	1	16	0.0	271.03	312.13	285.95
	  26	1	12	0.0	274.17	310.78	287.54
	  27	1	5	0.0	275.16	308.93	284.41
	  28	1	13	0.0	273.17	308.45	281.3
	  29	1	4	-1.0	270.68	306.57	283.39
	  30	1	7	0.5	270.06	303.96	280.83
	  31	1	8	0.0	272.52	302.76	278.26
	  32	1	5	0.0	271.85	300.32	275.52
	  33	1	13	0.0	273.22	299.38	272.21
	  34	1	1	0.0	272.0	301.29	269.16
	  35	1	10	0.0	270.66	298.04	267.68
	  36	1	18	0.0	267.08	297.2	266.64
	  37	1	6	0.0	265.55	294.12	265.0
	  38	1	15	1.0	262.36	292.24	264.05
	  39	1	13	0.0	262.41	288.45	263.61
	  40	1	8	0.0	263.73	286.83	260.44
	  41	1	8	0.0	265.06	283.22	261.32
	  42	1	15	1.0	268.31	281.93	262.9
	  43	1	16	0.0	267.34	278.42	263.94
	  44	1	17	0.0	266.89	275.78	261.24
	  45	1	17	0.0	266.22	273.58	264.28
	  46	1	9	1.0	263.31	272.47	266.52
	  47	1	18	0.0	264.38	274.28	269.7
	  48	1	6	0.0	263.27	277.52	271.38
	  49	1	12	0.0	259.49	277.59	271.77
	  50	1	8	0.0	259.95	280.99	273.44
	  51	1	4	-1.0	256.71	282.84	272.58
	  52	1	8	0.0	258.1	285.7	274.6
	  53	1	9	1.0	258.21	288.56	272.11
	  54	1	3	-1.0	258.61	289.32	268.42
	  55	1	10	0.0	260.47	292.6	267.92
	  56	1	11	0.0	263.18	294.0	270.09
	  57	1	18	0.0	265.21	297.12	270.58
	  58	1	6	0.0	268.62	297.74	272.08
	  59	1	3	-1.0	269.4	295.79	275.22
	  60	1	4	-1.0	266.56	293.37	274.67
	  61	1	1	0.0	267.79	292.91	271.1
	  62	1	16	0.0	271.27	291.72	272.01
	  63	1	4	-1.0	270.56	288.01	272.39
	  64	1	10	0.0	268.58	287.28	269.22
	  65	1	15	1.0	270.94	287.94	266.3
	  66	1	16	0.0	269.45	286.42	263.13
	  67	1	11	0.0	266.34	285.6	265.06
	  68	1	10	0.0	265.54	289.15	264.21
	  69	1	4	-1.0	266.39	290.93	261.04
	  70	1	18	0.0	268.6	293.51	262.62
	  71	1	12	0.0	269.35	296.64	260.75
	  72	1	20	0.0	270.98	300.03	260.83
	  73	1	13	0.0	270.16	301.87	257.74
	  74	1	11	0.0	272.86	304.44	257.67
	  75	1	4	-1.0	275.68	306.26	256.04
	  76	1	12	0.0	278.49	307.64	258.15
	  77	1	6	0.0	276.42	306.89	261.21
	  78	1	8	0.0	273.6	309.01	259.88
	  79	1	18	0.0	270.34	307.1	259.58
	  80	1	15	1.0	268.47	306.5	256.35
	  81	1	12	0.0	265.07	305.63	257.79
	  82	1	19	0.0	262.3	307.36	259.72
	  83	1	3	-1.0	260.19	304.45	261.05
	  84	1	3	-1.0	262.35	301.99	262.95
	  85	1	11	0.0	263.6	304.85	264.99
	  86	1	9	1.0	260.01	305.62	265.79
	  87	1	7	0.5	259.52	302.12	267.07
	  88	1	10	0.0	262.63	302.66	269.1
	  89	1	19	0.0	261.31	305.97	270.32
	  90	1	3	-1.0	258.06	304.38	271.28
	  91	1	20	0.0	260.03	301.73	273.12
	  92	1	17	0.0	262.3	304.25	274.83
	  93	1	5	0.0	259.31	306.06	276.3
	  94	1	6	0.0	258.65	303.3	278.77
	  95	1	13	0.0	260.74	302.49	281.73
	  96	1	4	-1.0	262.78	300.43	279.35
	  97	1	9	1.0	264.86	303.43	278.51
	  98	1	10	0.0	263.26	306.63	279.87
	  99	1	12	0.0	259.87	306.08	281.52
	 100	1	8	0.0	258.75	309.58	280.5
	 101	1	3	-1.0	256.05	311.58	278.66
	 102	1	17	0.0	257.12	314.17	276.02
	 103	1	15	1.0	254.41	316.79	275.6
	 104	1	12	0.0	254.56	318.19	279.09
	 105	1	2	0.0	258.32	317.99	278.96
	 106	1	9	1.0	261.37	319.17	277.04
	 107	1	8	0.0	264.53	317.45	275.82
	 108	1	10	0.0	268.15	318.11	274.85
	 109	1	10	0.0	269.62	316.47	271.73
	 110	1	17	0.0	272.29	317.02	269.1
	 111	1	4	-1.0	272.7	317.61	265.34
	 112	1	13	0.0	275.43	316.8	262.87
	 113	1	13	0.0	277.49	319.56	261.4
	 114	1	11	0.0	276.7	318.63	257.79
	 115	1	12	0.0	273.18	317.44	258.54
	 116	1	13	0.0	270.89	318.18	255.72
	 117	1	17	0.0	268.36	319.9	257.92
	 118	1	9	1.0	265.39	319.06	255.77
	 119	1	12	0.0	265.14	315.5	256.94
	 120	1	15	1.0	265.47	316.65	260.52
	 121	1	4	-1.0	262.76	319.16	259.9
	 122	1	9	1.0	260.58	316.37	258.69
	 123	1	8	0.0	261.37	314.27	261.72
	 124	1	18	0.0	260.9	317.16	264.07
	 125	1	4	-1.0	257.57	317.68	262.41
	 126	1	18	0.0	256.7	314.09	263.15
	 127	1	11	0.0	258.0	314.5	266.66
	 128	1	5	0.0	255.75	317.51	266.56
	 129	1	4	-1.0	252.93	315.29	265.65
	 130	1	17	0.0	253.68	312.61	268.24
	 131	1	20	0.0	255.88	313.73	271.15
	 132	1	14	0.0	255.17	317.41	270.82
	 133	1	5	0.0	257.5	318.55	273.58
	 134	1	16	0.0	256.73	321.83	275.31
	 135	1	6	0.0	260.23	322.82	274.33
	 136	1	18	0.0	263.35	321.2	272.96
	 137	1	20	0.0	267.03	321.94	272.4
	 138	1	18	0.0	269.51	320.83	269.74
	 139	1	1	0.0	273.12	321.72	269.05
	 140	1	8	0.0	276.12	320.68	266.99
	 141	1	14	0.0	277.53	317.42	268.27
	 142	1	1	0.0	281.03	318.5	269.12
	 143	1	18	0.0	280.18	321.65	271.04
	 144	1	10	0.0	278.56	319.69	273.84
	 145	1	17	0.0	281.92	318.45	275.04
	 146	1	10	0.0	283.19	321.85	276.21
	 147	1	20	0.0	280.28	322.39	278.58
	 148	1	1	0.0	281.43	320.76	281.8
	 149	1	14	0.0	284.58	322.94	281.91
	 150	1	6	0.0	283.36	325.76	279.74
	 151	1	10	0.0	286.38	325.4	277.4
	 152	1	10	0.0	287.17	327.82	274.54
	 153	1	17	0.0	289.72	326.31	272.19
	 154	1	6	0.0	291.89	323.61	270.7
	 155	1	18	0.0	290.62	320.89	268.43
	 156	1	18	0.0	287.61	318.85	269.45
	 157	1	18	0.0	288.01	315.23	268.64
	 158	1	3	-1.0	285.88	312.13	268.94
	 159	1	16	0.0	285.8	308.57	267.66
	 160	1	6	0.0	284.25	305.18	268.3
	 161	1	3	-1.0	282.73	302.6	266.0
	 162	1	6	0.0	280.8	304.83	263.59
	 163	1	18	0.0	282.89	307.92	262.9
	 164	1	17	0.0	285.41	310.42	264.26
	 165	1	7	0.5	285.46	314.22	264.57
	 166	1	8	0.0	288.21	316.85	263.81
	 167	1	2	0.0	286.66	320.33	264.65
	 168	1	13	0.0	289.22	323.01	265.22
	 169	1	18	0.0	288.04	325.6	267.68
	 170	1	20	0.0	288.94	328.96	269.12
	 171	1	4	-1.0	286.96	331.16	271.51
	 172	1	6	0.0	284.25	328.56	271.25
	 173	1	5	0.0	284.02	329.18	267.55
	 174	1	16	0.0	284.89	326.19	265.46
	 175	1	10	0.0	286.45	327.2	262.23
	 176	1	13	0.0	283.88	325.99	259.8
	 177	1	7	0.5	285.88	326.44	256.61
	 178	1	10	0.0	288.82	324.79	258.31
	 179	1	17	0.0	286.76	322.1	260.03
	 180	1	15	1.0	287.5	318.46	259.46
	 181	1	15	1.0	286.07	315.11	260.47
	 182	1	10	0.0	286.65	311.49	259.65
	 183	1	3	-1.0	283.84	309.39	258.21
	 184	1	8	0.0	284.35	306.14	260.0
	 185	1	1	0.0	285.62	304.28	263.02
	 186	1	6	0.0	285.7	300.68	264.37
	 187	1	15	1.0	282.9	299.27	262.25
	 188	1	3	-1.0	284.8	299.0	258.96
	 189	1	8	0.0	288.02	298.22	260.73
	 190	1	17	0.0	286.23	295.18	261.99
	 191	1	15	1.0	285.5	294.24	258.42
	 192	1	20	0.0	289.14	294.57	257.54
	 193	1	10	0.0	290.23	292.87	260.73
	 194	1	8	0.0	287.89	289.98	260.12
	 195	1	9	1.0	289.38	289.63	256.68
	 196	1	10	0.0	292.67	288.77	258.31
	 197	1	10	0.0	290.94	285.98	260.18
	 198	1	10	0.0	289.62	284.26	257.07
	 199	1	10	0.0	293.19	283.63	256.03
	 200	1	15	1.0	293.53	281.91	259.39
	 201	1	6	0.0	290.68	279.61	258.47
	 202	1	20	0.0	288.61	281.98	260.58
	 203	1	1	0.0	286.32	282.13	257.5
	 204	1	5	0.0	283.12	281.89	259.67
	 205	1	12	0.0	280.12	283.91	258.51
	 206	1	7	0.5	280.14	287.57	259.43
	 207	1	16	0.0	276.37	287.68	259.53
	 208	1	1	0.0	276.35	285.87	262.83
	 209	1	3	-1.0	280.05	286.57	263.62
	 210	1	5	0.0	280.96	290.22	262.88
	 211	1	4	-1.0	279.91	291.62	266.27
	 212	1	17	0.0	282.13	289.17	268.08
	 213	1	18	0.0	285.07	291.5	267.61
	 214	1	15	1.0	282.95	294.13	269.31
	 215	1	11	0.0	282.85	292.13	272.49
	 216	1	8	0.0	286.6	292.04	272.77
	 217	1	9	1.0	286.89	295.53	271.44
	 218	1	4	-1.0	284.65	296.89	274.08
	 219	1	9	1.0	285.86	294.79	276.98
	 220	1	10	0.0	289.47	293.8	276.25
	 221	1	2	0.0	291.1	295.94	273.59
	 222	1	20	0.0	293.93	298.41	274.15
	 223	1	18	0.0	296.96	299.77	272.33
	 224	1	6	0.0	300.67	299.78	273.15
	 225	1	20	0.0	303.07	302.73	273.48
	 226	1	12	0.0	306.3	301.46	271.98
	 227	1	8	0.0	304.88	300.46	268.69
	 228	1	4	-1.0	308.06	300.39	266.66
	 229	1	14	0.0	309.99	298.42	269.2
	 230	1	4	-1.0	306.89	296.34	269.59
	 231	1	14	0.0	306.83	295.46	265.93
	 232	1	9	1.0	310.44	294.42	266.03
	 233	1	10	0.0	309.82	292.25	269.06
	 234	1	1	0.0	306.63	290.68	267.86
	 235	1	10	0.0	307.96	288.79	264.89
	 236	1	4	-1.0	311.26	287.97	266.47
	 237	1	17	0.0	309.88	286.82	269.8
	 238	1	17	0.0	306.64	285.49	268.3
	 239	1	18	0.0	305.84	284.57	271.9
	 240	1	10	0.0	304.0	287.85	272.29
	 241	1	18	0.0	300.92	286.62	270.38
	 242	1	4	-1.0	297.64	286.09	272.25
	 243	1	16	0.0	294.43	284.06	271.97
	 244	1	20	0.0	290.8	284.19	273.0
	 245	1	17	0.0	288.07	281.79	273.74
	 246	1	10	0.0	285.08	282.58	271.68
	 247	1	13	0.0	282.13	282.24	273.92
	 248	1	3	-1.0	281.24	279.2	271.88
	 249	1	6	0.0	284.33	278.0	273.65
	 250	1	15	1.0	286.59	277.79	270.65
	 251	1	8	0.0	289.92	279.27	271.5
	 252	1	8	0.0	291.25	281.1	268.53
	 253	1	9	1.0	294.7	282.47	268.1
	 254	1	18	0.0	295.13	286.12	267.37
	 255	1	6	0.0	298.19	288.21	267.29
	 256	1	6	0.0	299.04	291.85	266.81
	 257	1	4	-1.0	295.82	292.52	264.96
	 258	1	15	1.0	294.04	293.3	268.13
	 259	1	5	0.0	296.11	296.48	268.5
	 260	1	4	-1.0	297.44	296.41	264.94
	 261	1	1	0.0	294.1	297.12	263.37
	 262	1	13	0.0	294.5	300.67	264.49
	 263	1	4	-1.0	297.52	300.87	262.22
	 264	1	1	0.0	295.02	301.45	259.46
	 265	1	10	0.0	294.15	304.64	261.23
	 266	1	5	0.0	297.74	305.79	260.83
	 267	1	14	0.0	298.04	304.26	257.41
	 268	1	13	0.0	294.86	303.56	255.63
	 269	1	7	0.5	297.11	302.1	252.96
	 270	1	10	0.0	297.08	298.99	255.06
	 271	1	8	0.0	293.61	298.54	253.59
	 272	1	12	0.0	295.37	299.28	250.34
	 273	1	18	0.0	292.97	302.06	250.12
	 274	1	4	-1.0	295.66	304.61	250.53
	 275	1	6	0.0	295.8	306.8	253.57
	 276	1	18	0.0	298.37	309.04	255.16
	 277	1	6	0.0	296.28	308.48	258.21
	 278	1	18	0.0	294.82	310.8	260.77
	 279	1	1	0.0	298.23	311.42	262.26
	 280	1	4	-1.0	299.39	313.2	259.16
	 281	1	10	0.0	296.06	314.91	258.9
	 282	1	10	0.0	296.66	316.1	262.42
	 283	1	5	0.0	299.99	317.45	261.32
	 284	1	12	0.0	298.29	319.22	258.48
	 285	1	17	0.0	295.65	320.6	260.78
	 286	1	8	0.0	298.25	321.93	263.18
	 287	1	14	0.0	300.16	323.36	260.27
	 288	1	1	0.0	297.03	325.24	259.42
	 289	1	1	0.0	296.76	326.24	263.05
	 290	1	3	-1.0	298.41	329.54	263.93
	 291	1	8	0.0	301.57	329.87	266.0
	 292	1	3	-1.0	299.79	330.74	269.18
	 293	1	17	0.0	297.22	328.02	268.72
	 294	1	15	1.0	299.75	325.52	267.49
	 295	1	16	0.0	301.99	326.29	270.42
	 296	1	4	-1.0	299.08	326.04	272.8
	 297	1	5	0.0	298.27	322.88	270.86
	 298	1	20	0.0	301.06	321.04	272.6
	 299	1	9	1.0	298.96	321.06	275.79
	 300	1	7	0.5	295.75	322.57	274.25
	 301	1	8	0.0	293.6	319.99	272.31
	 302	1	18	0.0	290.44	318.22	273.58
	 303	1	10	0.0	289.07	314.69	273.04
	 304	1	16	0.0	285.88	312.93	274.05
	 305	1	6	0.0	283.99	309.69	274.53
	 306	1	6	0.0	284.63	306.18	275.79
	 307	1	16	0.0	286.73	305.69	272.7
	 308	1	17	0.0	289.1	308.21	274.33
	 309	1	11	0.0	289.56	305.82	277.25
	 310	1	20	0.0	292.39	303.97	275.47
	 311	1	13	0.0	295.86	303.75	276.84
	 312	1	6	0.0	299.2	303.89	275.07
	 313	1	10	0.0	298.13	305.58	271.91
	 314	1	13	0.0	298.29	309.02	273.31
	 315	1	16	0.0	301.82	308.41	274.48
	 316	1	15	1.0	302.63	307.09	271.06
	 317	1	10	0.0	301.15	310.16	269.51
	 318	1	4	-1.0	303.3	312.53	271.52
	 319	1	15	1.0	306.35	310.5	270.76
	 320	1	4	-1.0	305.37	310.76	267.12
	 321	1	10	0.0	304.39	314.43	267.29
	 322	1	9	1.0	307.73	315.55	268.49
	 323	1	14	0.0	309.33	314.13	265.36
	 324	1	10	0.0	307.28	315.6	262.53
	 325	1	20	0.0	307.57	319.05	263.94
	 326	1	10	0.0	311.26	318.64	264.51
	 327	1	4	-1.0	311.91	317.19	261.15
	 328	1	15	1.0	309.78	319.45	259.04
	 329	1	18	0.0	309.66	322.79	260.79
	 330	1	10	0.0	312.47	322.58	263.3
	 331	1	9	1.0	314.68	321.07	260.7
	 332	1	6	0.0	316.96	319.82	263.42
	 333	1	3	-1.0	316.26	322.13	266.34
	 334	1	18	0.0	315.76	319.75	269.31
	 335	1	4	-1.0	316.15	321.91	272.42
	 336	1	9	1.0	312.57	323.16	272.95
	 337	1	10	0.0	310.88	319.79	272.52
	 338	1	16	0.0	310.37	319.07	276.23
	 339	1	9	1.0	310.05	322.78	276.81
	 340	1	5	0.0	306.81	322.64	275.0
	 341	1	9	1.0	304.54	321.55	277.79
	 342	1	8	0.0	303.15	318.08	277.04
	 343	1	15	1.0	300.19	317.81	279.52
	 344	1	8	0.0	297.68	315.03	278.75
	 345	1	4	-1.0	294.26	315.72	277.19
	 346	1	3	-1.0	291.84	312.97	278.2
	 347	1	13	0.0	290.4	312.55	281.63
	 348	1	13	0.0	288.35	309.76	283.06
	 349	1	15	1.0	285.33	312.07	282.84
	 350	1	15	1.0	285.38	311.21	279.17
	 351	1	9	1.0	283.38	308.09	279.82
	 352	1	7	0.5	280.35	309.87	281.38
	 353	1	11	0.0	280.69	313.0	279.25
	 354	1	18	0.0	278.75	311.38	276.45
	 355	1	5	0.0	275.66	312.27	278.46
	 356	1	10	0.0	277.35	314.48	281.04
	 357	1	6	0.0	278.74	316.92	278.58
	 358	1	6	0.0	275.17	317.73	277.68
	 359	1	1	0.0	273.85	317.69	281.24
	 360	1	18	0.0	275.89	320.62	282.46
	 361	1	10	0.0	274.07	322.93	280.06
	 362	1	1	0.0	270.68	321.81	281.31
	 363	1	3	-1.0	271.72	322.81	284.77
	 364	1	8	0.0	271.69	326.43	283.69
	 365	1	11	0.0	269.25	326.02	280.75
	 366	1	9	1.0	266.04	324.37	282.0
	 367	1	3	-1.0	264.38	327.64	282.93
	 368	1	9	1.0	265.36	329.46	279.82
	 369	1	3	-1.0	262.84	329.8	277.05
	 370	1	12	0.0	265.67	331.77	275.63
	 371	1	5	0.0	267.32	328.45	274.99
	 372	1	19	0.0	264.41	326.22	274.22
	 373	1	11	0.0	263.24	325.58	270.69
	 374	1	17	0.0	259.56	324.97	270.48
	 375	1	15	1.0	256.9	322.8	268.9
	 376	1	14	0.0	255.01	325.99	268.34
	 377	1	4	-1.0	257.81	327.24	266.19
	 378	1	20	0.0	257.35	324.23	263.98
	 379	1	14	0.0	253.59	324.68	264.11
	 380	1	4	-1.0	254.06	328.25	263.01
	 381	1	9	1.0	255.94	326.79	260.11
	 382	1	6	0.0	258.62	329.13	261.25
	 383	1	18	0.0	261.96	329.03	259.53
	 384	1	15	1.0	263.4	327.3	262.53
	 385	1	18	0.0	262.16	326.04	265.86
	 386	1	10	0.0	265.02	328.08	267.3
	 387	1	4	-1.0	265.71	331.8	267.08
	 388	1	9	1.0	267.53	333.02	264.0
	 389	1	10	0.0	270.12	334.99	265.9
	 390	1	6	0.0	271.42	333.9	269.27
	 391	1	18	0.0	269.72	336.05	271.85
	 392	1	17	0.0	271.69	334.58	274.7
	 393	1	18	0.0	274.99	332.79	274.86
	 394	1	15	1.0	274.87	329.17	273.89
	 395	1	11	0.0	320.15	282.85	231.65
	 396	1	1	0.0	318.71	279.53	232.79
	 397	1	6	0.0	320.77	277.14	234.65
	 398	1	15	1.0	321.73	274.79	231.86
	 399	1	10	0.0	318.09	274.65	230.93
	 400	1	13	0.0	315.29	277.03	230.93
	 401	1	1	0.0	312.17	277.44	233.07
	 402	1	2	0.0	309.21	275.14	233.18
	 403	1	18	0.0	305.95	275.39	235.02
	 404	1	18	0.0	304.13	272.98	237.21
	 405	1	3	-1.0	300.66	273.67	238.45
	 406	1	2	0.0	300.53	272.37	242.02
	 407	1	6	0.0	296.79	271.42	241.76
	 408	1	17	0.0	294.58	270.63	244.76
	 409	1	6	0.0	293.47	267.53	242.98
	 410	1	20	0.0	295.38	267.18	239.76
	 411	1	17	0.0	298.89	268.36	238.98
	 412	1	9	1.0	299.58	269.8	235.56
	 413	1	10	0.0	302.75	270.42	233.58
	 414	1	6	0.0	304.42	270.34	230.18
	 415	1	20	0.0	307.9	270.69	228.71
	 416	1	1	0.0	309.87	273.46	227.12
	 417	1	6	0.0	308.84	273.93	223.53
	 418	1	12	0.0	305.38	272.41	223.95
	 419	1	17	0.0	302.0	274.12	223.42
	 420	1	4	-1.0	299.97	272.73	226.28
	 421	1	13	0.0	300.07	270.8	229.47
	 422	1	14	0.0	301.33	267.39	228.55
	 423	1	5	0.0	299.73	266.04	231.62
	 424	1	8	0.0	297.09	266.67	234.18
	 425	1	8	0.0	297.45	263.93	236.71
	 426	1	13	0.0	296.03	262.84	239.98
	 427	1	16	0.0	298.01	263.89	242.99
	 428	1	2	0.0	297.93	260.73	245.0
	 429	1	8	0.0	300.21	258.16	246.6
	 430	1	1	0.0	299.59	254.91	248.42
	 431	1	8	0.0	301.18	253.48	251.57
	 432	1	9	1.0	300.14	250.49	253.66
	 433	1	4	-1.0	297.87	251.65	256.51
	 434	1	16	0.0	297.33	248.2	258.04
	 435	1	1	0.0	299.42	249.05	261.07
	 436	1	9	1.0	299.98	245.41	261.82
	 437	1	18	0.0	303.16	246.12	263.62
	 438	1	6	0.0	305.09	243.03	264.48
	 439	1	3	-1.0	308.47	241.35	264.04
	 440	1	14	0.0	311.82	241.87	265.67
	 441	1	1	0.0	311.33	245.51	266.44
	 442	1	14	0.0	314.02	248.12	266.28
	 443	1	15	1.0	314.25	251.85	266.7
	 444	1	15	1.0	316.64	254.78	266.64
	 445	1	18	0.0	318.47	253.32	263.66
	 446	1	11	0.0	318.49	254.79	260.15
	 447	1	9	1.0	320.48	251.81	258.73
	 448	1	6	0.0	319.54	250.35	255.33
	 449	1	18	0.0	316.08	248.92	255.38
	 450	1	3	-1.0	314.02	246.25	253.63
	 451	1	3	-1.0	310.8	247.51	255.22
	 452	1	10	0.0	309.22	250.26	253.09
	 453	1	3	-1.0	306.46	249.56	250.58
	 454	1	5	0.0	305.02	252.58	248.84
	 455	1	5	0.0	304.03	253.62	245.36
	 456	1	8	0.0	303.1	256.97	243.86
	 457	1	6	0.0	300.94	258.37	241.09
	 458	1	3	-1.0	297.75	257.28	239.38
	 459	1	4	-1.0	299.03	253.73	239.44
	 460	1	1	0.0	299.04	254.01	243.21
	 461	1	8	0.0	295.28	253.91	243.14
	 462	1	4	-1.0	295.44	250.23	242.24
	 463	1	9	1.0	297.73	248.94	245.02
	 464	1	13	0.0	295.88	247.03	247.71
	 465	1	17	0.0	296.06	247.86	251.43
	 466	1	20	0.0	296.49	251.02	249.46
	 467	1	1	0.0	296.08	253.97	251.7
	 468	1	17	0.0	296.24	256.06	248.57
	 469	1	9	1.0	296.29	259.45	250.21
	 470	1	19	0.0	296.53	262.78	248.47
	 471	1	13	0.0	298.87	265.58	249.21
	 472	1	8	0.0	296.12	267.92	248.09
	 473	1	15	1.0	295.16	270.43	250.74
	 474	1	7	0.5	292.03	268.83	252.23
	 475	1	6	0.0	292.87	270.1	255.67
	 476	1	8	0.0	295.57	267.56	255.79
	 477	1	18	0.0	298.4	269.96	255.1
	 478	1	4	-1.0	301.07	268.19	257.18
	 479	1	3	-1.0	301.84	265.75	254.38
	 480	1	19	0.0	304.02	268.48	252.93
	 481	1	3	-1.0	306.82	266.45	254.41
	 482	1	10	0.0	305.92	263.61	252.04
	 483	1	11	0.0	305.4	266.02	249.2
	 484	1	4	-1.0	309.12	266.55	248.93
	 485	1	15	1.0	309.78	262.84	248.46
	 486	1	5	0.0	306.77	262.67	246.21
	 487	1	11	0.0	308.08	265.52	244.14
	 488	1	4	-1.0	311.53	264.1	244.06
	 489	1	14	0.0	310.03	261.0	242.56
	 490	1	18	0.0	308.05	263.01	240.11
	 491	1	8	0.0	310.9	265.11	238.87
	 492	1	5	0.0	313.67	262.56	238.94
	 493	1	9	1.0	311.63	259.43	238.31
	 494	1	20	0.0	308.58	260.25	236.22
	 495	1	10	0.0	309.7	263.42	234.55
	 496	1	15	1.0	313.2	262.01	234.77
	 497	1	1	0.0	314.61	265.52	234.94
	 498	1	4	-1.0	317.22	267.48	236.84
	 499	1	13	0.0	316.13	270.41	238.93
	 500	1	4	-1.0	319.58	271.85	239.36
	 501	1	3	-1.0	319.9	272.53	235.65
	 502	1	7	0.5	316.36	273.71	235.03
	 503	1	20	0.0	314.54	276.86	235.98
	 504	1	5	0.0	311.04	276.67	237.51
	 505	1	10	0.0	307.66	278.26	238.35
	 506	1	10	0.0	305.32	276.76	240.99
	 507	1	17	0.0	301.92	277.84	242.35
	 508	1	4	-1.0	300.24	278.46	245.72
	 509	1	13	0.0	296.86	279.46	247.01
	 510	1	13	0.0	296.29	282.93	248.38
	 511	1	10	0.0	295.38	281.62	251.83
	 512	1	12	0.0	298.75	279.94	252.36
	 513	1	17	0.0	300.79	280.52	255.5
	 514	1	13	0.0	304.53	280.84	255.46
	 515	1	4	-1.0	305.78	277.99	257.65
	 516	1	12	0.0	305.01	275.11	255.35
	 517	1	15	1.0	306.66	276.8	252.39
	 518	1	4	-1.0	309.54	278.29	254.3
	 519	1	20	0.0	310.68	274.95	255.63
	 520	1	17	0.0	310.55	273.53	252.14
	 521	1	1	0.0	312.6	276.48	250.99
	 522	1	4	-1.0	315.66	274.99	252.58
	 523	1	8	0.0	314.74	271.87	250.72
	 524	1	11	0.0	314.38	273.84	247.53
	 525	1	5	0.0	317.87	275.25	248.01
	 526	1	4	-1.0	319.62	272.31	249.66
	 527	1	16	0.0	317.63	269.32	248.51
	 528	1	5	0.0	316.44	270.42	245.13
	 529	1	12	0.0	319.23	272.94	245.04
	 530	1	18	0.0	317.52	274.76	242.21
	 531	1	13	0.0	319.27	277.71	240.74
	 532	1	6	0.0	316.13	279.75	240.71
	 533	1	10	0.0	312.41	279.37	241.18
	 534	1	20	0.0	309.5	281.39	242.41
	 535	1	8	0.0	306.3	280.32	244.03
	 536	1	1	0.0	303.59	282.53	242.7
	 537	1	18	0.0	299.91	282.61	243.45
	 538	1	14	0.0	298.04	280.28	241.14
	 539	1	1	0.0	296.29	283.12	239.36
	 540	1	18	0.0	299.63	284.38	238.12
	 541	1	10	0.0	299.74	281.71	235.45
	 542	1	1	0.0	296.34	282.83	234.22
	 543	1	10	0.0	297.67	286.31	233.58
	 544	1	1	0.0	299.76	285.01	230.72
	 545	1	1	0.0	296.64	283.68	229.06
	 546	1	16	0.0	295.06	287.08	229.18
	 547	1	19	0.0	298.08	288.16	227.33
	 548	1	17	0.0	297.91	285.17	225.03
	 549	1	16	0.0	294.87	286.87	223.77
	 550	1	15	1.0	296.87	289.44	221.8
	 551	1	14	0.0	293.98	291.76	220.75
	 552	1	18	0.0	294.57	295.5	220.47
	 553	1	6	0.0	292.38	296.22	223.51
	 554	1	4	-1.0	294.69	293.98	225.59
	 555	1	15	1.0	296.8	296.92	226.87
	 556	1	17	0.0	295.76	297.41	230.51
	 557	1	10	0.0	295.7	295.65	233.88
	 558	1	17	0.0	292.16	296.63	234.89
	 559	1	6	0.0	289.16	294.31	234.54
	 560	1	17	0.0	287.71	291.49	236.58
	 561	1	18	0.0	288.33	287.78	236.35
	 562	1	8	0.0	285.85	285.24	237.59
	 563	1	3	-1.0	287.45	281.9	238.31
	 564	1	16	0.0	285.95	278.59	239.33
	 565	1	6	0.0	287.28	275.15	240.24
	 566	1	3	-1.0	286.72	271.86	242.09
	 567	1	6	0.0	288.38	272.78	245.38
	 568	1	18	0.0	288.05	276.51	245.17
	 569	1	17	0.0	286.54	279.4	243.22
	 570	1	7	0.5	287.88	282.93	243.07
	 571	1	18	0.0	287.17	286.56	242.21
	 572	1	8	0.0	289.64	289.42	242.15
	 573	1	13	0.0	289.47	293.21	242.02
	 574	1	18	0.0	292.75	293.56	240.09
	 575	1	1	0.0	293.4	297.06	238.81
	 576	1	4	-1.0	296.85	297.63	237.47
	 577	1	6	0.0	297.23	294.48	239.43
	 578	1	20	0.0	296.26	296.03	242.71
	 579	1	18	0.0	293.49	294.75	244.8
	 580	1	8	0.0	291.69	295.13	248.13
	 581	1	6	0.0	291.62	292.27	250.58
	 582	1	16	0.0	287.93	292.31	251.46
	 583	1	2	0.0	287.17	293.0	247.81
	 584	1	8	0.0	288.95	289.91	246.54
	 585	1	9	1.0	286.85	286.8	246.89
	 586	1	7	0.5	288.21	283.4	247.98
	 587	1	8	0.0	284.87	281.57	247.34
	 588	1	13	0.0	285.05	278.18	248.83
	 589	1	8	0.0	282.14	276.64	246.96
	 590	1	1	0.0	283.41	274.26	244.38
	 591	1	6	0.0	282.95	271.03	242.42
	 592	1	15	1.0	283.66	268.54	245.15
	 593	1	3	-1.0	280.67	269.9	247.0
	 594	1	8	0.0	278.38	269.37	244.03
	 595	1	17	0.0	279.54	265.86	243.2
	 596	1	20	0.0	278.6	264.37	246.53
	 597	1	5	0.0	275.22	265.93	246.26
	 598	1	8	0.0	274.69	264.37	242.89
	 599	1	14	0.0	275.56	261.15	244.61
	 600	1	14	0.0	272.3	261.7	246.47
	 601	1	10	0.0	270.56	262.26	243.14
	 602	1	10	0.0	271.2	258.65	242.33
	 603	1	15	1.0	268.53	257.71	244.84
	 604	1	3	-1.0	266.2	259.35	242.42
	 605	1	15	1.0	266.7	257.32	239.22
	 606	1	4	-1.0	269.36	254.65	239.1
	 607	1	18	0.0	271.48	251.93	240.66
	 608	1	6	0.0	273.83	249.01	239.99
	 609	1	8	0.0	277.16	250.46	240.97
	 610	1	13	0.0	279.75	250.15	243.65
	 611	1	13	0.0	279.52	253.06	245.98
	 612	1	4	-1.0	282.99	254.21	244.99
	 613	1	14	0.0	282.24	253.79	241.32
	 614	1	16	0.0	279.01	255.64	241.88
	 615	1	10	0.0	280.85	258.92	242.22
	 616	1	4	-1.0	282.82	258.3	239.06
	 617	1	17	0.0	279.78	257.45	236.99
	 618	1	1	0.0	277.93	260.45	238.28
	 619	1	9	1.0	280.61	262.76	236.95
	 620	1	1	0.0	280.91	260.8	233.78
	 621	1	18	0.0	277.29	261.49	233.04
	 622	1	9	1.0	276.99	265.0	234.4
	 623	1	4	-1.0	279.37	267.13	232.44
	 624	1	15	1.0	278.03	266.62	228.96
	 625	1	20	0.0	274.3	266.57	229.83
	 626	1	16	0.0	273.65	269.14	232.58
	 627	1	20	0.0	272.14	272.54	231.86
	 628	1	18	0.0	269.91	275.21	233.47
	 629	1	2	0.0	266.21	275.9	233.0
	 630	1	13	0.0	264.2	279.01	233.38
	 631	1	3	-1.0	261.45	277.34	235.38
	 632	1	10	0.0	261.37	273.91	236.92
	 633	1	18	0.0	257.64	273.81	236.51
	 634	1	9	1.0	257.81	274.09	232.75
	 635	1	4	-1.0	260.86	271.86	232.6
	 636	1	5	0.0	259.29	268.83	234.22
	 637	1	12	0.0	256.79	268.3	231.45
	 638	1	9	1.0	259.38	268.15	228.7
	 639	1	20	0.0	261.0	265.21	230.36
	 640	1	3	-1.0	257.69	263.56	230.85
	 641	1	17	0.0	256.24	264.23	227.38
	 642	1	3	-1.0	258.87	265.34	224.88
	 643	1	6	0.0	260.81	262.23	224.18
	 644	1	16	0.0	264.4	261.1	224.03
	 645	1	9	1.0	265.79	264.53	223.35
	 646	1	19	0.0	264.93	265.43	226.86
	 647	1	8	0.0	265.03	261.83	227.97
	 648	1	9	1.0	268.33	260.36	226.99
	 649	1	14	0.0	269.72	257.06	228.13
	 650	1	20	0.0	273.21	256.29	229.33
	 651	1	17	0.0	275.03	253.0	229.47
	 652	1	6	0.0	278.04	251.94	231.47
	 653	1	8	0.0	279.4	249.11	233.53
	 654	1	12	0.0	278.64	247.98	237.02
	 655	1	1	0.0	282.11	247.76	238.46
	 656	1	8	0.0	281.2	245.15	240.97
	 657	1	16	0.0	280.51	242.34	238.48
	 658	1	9	1.0	281.97	244.25	235.55
	 659	1	9	1.0	278.67	243.77	233.76
	 660	1	4	-1.0	277.01	246.53	231.8
	 661	1	5	0.0	274.21	248.62	233.18
	 662	1	16	0.0	271.84	250.87	231.33
	 663	1	8	0.0	270.72	253.94	233.19
	 664	1	3	-1.0	268.19	256.65	232.53
	 665	1	18	0.0	268.87	260.34	232.18
	 666	1	6	0.0	266.45	263.2	232.15
	 667	1	20	0.0	265.54	265.79	234.75
	 668	1	4	-1.0	268.83	265.44	236.52
	 669	1	15	1.0	270.46	267.21	233.6
	 670	1	5	0.0	268.65	270.43	234.39
	 671	1	10	0.0	268.63	269.81	238.1
	 672	1	6	0.0	272.38	269.51	238.68
	 673	1	13	0.0	274.06	272.83	237.82
	 674	1	4	-1.0	271.98	275.29	239.9
	 675	1	8	0.0	274.67	275.92	242.53
	 676	1	5	0.0	276.06	279.08	240.94
	 677	1	5	0.0	272.8	280.83	241.72
	 678	1	7	0.5	272.56	278.15	244.45
	 679	1	13	0.0	275.76	278.44	246.62
	 680	1	4	-1.0	273.63	277.54	249.67
	 681	1	5	0.0	273.75	274.09	248.12
	 682	1	1	0.0	277.33	273.79	249.28
	 683	1	12	0.0	277.01	276.24	252.08
	 684	1	13	0.0	273.61	276.84	253.52
	 685	1	3	-1.0	275.45	278.76	256.23
	 686	1	5	0.0	276.61	281.38	253.78
	 687	1	17	0.0	274.35	281.09	250.73
	 688	1	14	0.0	275.15	284.24	248.7
	 689	1	13	0.0	274.54	283.68	245.09
	 690	1	8	0.0	276.79	284.6	242.2
	 691	1	16	0.0	274.68	287.58	241.24
	 692	1	4	-1.0	274.73	288.95	244.74
	 693	1	18	0.0	278.37	288.12	245.19
	 694	1	18	0.0	279.31	290.07	242.11
	 695	1	3	-1.0	277.38	293.04	243.4
	 696	1	4	-1.0	279.15	292.65	246.69
	 697	1	18	0.0	282.44	293.18	244.93
	 698	1	8	0.0	281.28	296.06	242.74
	 699	1	14	0.0	280.01	298.17	245.58
	 700	1	12	0.0	283.54	298.42	246.87
	 701	1	2	0.0	285.0	299.19	243.49
	 702	1	13	0.0	284.74	302.89	243.02
	 703	1	8	0.0	282.6	304.38	240.26
	 704	1	3	-1.0	285.56	305.4	238.14
	 705	1	18	0.0	286.5	301.78	237.84
	 706	1	15	1.0	282.95	300.73	237.12
	 707	1	15	1.0	283.13	301.86	233.54
	 708	1	13	0.0	286.16	299.72	233.14
	 709	1	10	0.0	284.3	296.92	234.84
	 710	1	20	0.0	281.73	297.06	232.13
	 711	1	9	1.0	284.58	297.48	229.72
	 712	1	12	0.0	286.44	294.42	230.77
	 713	1	8	0.0	284.94	291.41	232.48
	 714	1	18	0.0	287.01	288.24	232.21
	 715	1	10	0.0	286.78	284.59	233.2
	 716	1	16	0.0	289.08	281.77	234.2
	 717	1	6	0.0	289.09	278.0	234.46
	 718	1	6	0.0	287.27	275.29	232.58
	 719	1	16	0.0	284.43	275.96	234.95
	 720	1	17	0.0	284.1	279.27	233.16
	 721	1	11	0.0	283.93	277.58	229.74
	 722	1	5	0.0	280.33	276.37	230.34
	 723	1	15	1.0	277.54	277.21	227.97
	 724	1	3	-1.0	274.53	279.45	228.37
	 725	1	5	0.0	274.43	279.13	232.09
	 726	1	6	0.0	276.62	282.16	232.03
	 727	1	15	1.0	274.51	283.72	229.34
	 728	1	15	1.0	271.37	283.29	231.34
	 729	1	10	0.0	273.09	284.67	234.37
	 730	1	14	0.0	274.78	287.52	232.65
	 731	1	15	1.0	271.57	288.75	231.16
	 732	1	3	-1.0	269.86	288.76	234.52
	 733	1	10	0.0	272.97	290.2	236.09
	 734	1	9	1.0	273.02	292.97	233.56
	 735	1	15	1.0	269.42	293.68	234.22
	 736	1	17	0.0	270.24	293.73	237.9
	 737	1	18	0.0	272.83	296.43	237.47
	 738	1	3	-1.0	270.56	298.37	235.2
	 739	1	1	0.0	267.86	298.19	237.79
	 740	1	15	1.0	270.27	299.41	240.4
	 741	1	10	0.0	271.38	302.23	238.1
	 742	1	9	1.0	267.83	303.3	237.43
	 743	1	10	0.0	267.24	304.71	240.88
	 744	1	16	0.0	269.13	307.83	239.86
	 745	1	4	-1.0	266.12	308.61	237.72
	 746	1	4	-1.0	264.64	310.53	240.57
	 747	1	10	0.0	267.08	313.42	240.4
	 748	1	16	0.0	267.21	314.15	236.68
	 749	1	6	0.0	263.88	312.52	236.19
	 750	1	6	0.0	263.06	311.26	232.7
	 751	1	15	1.0	266.48	311.57	231.05
	 752	1	10	0.0	267.36	307.88	231.38
	 753	1	9	1.0	270.38	307.71	229.12
	 754	1	13	0.0	273.56	305.83	229.68
	 755	1	9	1.0	276.93	307.23	228.75
	 756	1	13	0.0	278.61	305.03	226.26
	 757	1	8	0.0	280.51	302.22	227.94
	 758	1	3	-1.0	281.81	299.08	226.29
	 759	1	18	0.0	281.18	295.5	227.29
	 760	1	14	0.0	282.93	292.27	226.45
	 761	1	18	0.0	284.1	288.99	227.93
	 762	1	8	0.0	286.35	286.1	227.01
	 763	1	17	0.0	284.87	282.97	225.54
	 764	1	7	0.5	287.14	280.12	224.51
	 765	1	7	0.5	287.93	276.44	224.95
	 766	1	11	0.0	291.55	277.56	224.95
	 767	1	14	0.0	291.09	278.62	228.52
	 768	1	15	1.0	291.86	275.05	229.57
	 769	1	20	0.0	295.12	274.33	227.71
	 770	1	1	0.0	296.81	277.74	227.81
	 771	1	18	0.0	297.77	277.76	231.5
	 772	1	19	0.0	300.82	275.53	231.18
	 773	1	5	0.0	301.96	277.11	227.98
	 774	1	6	0.0	301.66	280.68	229.13
	 775	1	6	0.0	302.99	279.72	232.52
	 776	1	16	0.0	306.13	278.23	231.1
	 777	1	11	0.0	306.4	281.28	228.94
	 778	1	10	0.0	306.44	283.77	231.72
	 779	1	1	0.0	308.98	281.78	233.62
	 780	1	16	0.0	310.99	281.72	230.42
	 781	1	17	0.0	311.04	285.51	230.31
	 782	1	13	0.0	314.54	286.7	230.79
	 783	1	4	-1.0	313.0	289.23	233.13
	 784	1	5	0.0	312.0	286.36	235.42
	 785	1	20	0.0	315.43	284.96	236.21
	 786	1	14	0.0	316.69	287.53	238.71
	 787	1	18	0.0	313.33	288.59	240.12
	 788	1	2	0.0	312.48	285.0	240.77
	 789	1	7	0.5	314.28	283.82	243.85
	 790	1	17	0.0	317.65	282.6	242.77
	 791	1	9	1.0	319.6	280.51	245.22
	 792	1	9	1.0	321.36	283.55	246.57
	 793	1	3	-1.0	318.11	285.39	246.7
	 794	1	20	0.0	316.92	282.48	248.77
	 795	1	4	-1.0	319.87	282.56	251.11
	 796	1	4	-1.0	319.23	286.22	251.51
	 797	1	8	0.0	315.58	285.49	251.97
	 798	1	6	0.0	315.44	282.39	254.22
	 799	1	13	0.0	318.73	281.39	255.65
	 800	1	16	0.0	319.94	284.74	256.73
	 801	1	8	0.0	316.68	286.29	257.87
	 802	1	2	0.0	314.54	284.38	260.37
	 803	1	15	1.0	316.52	284.74	263.57
	 804	1	7	0.5	318.38	287.63	261.98
	 805	1	12	0.0	315.23	289.75	261.57
	 806	1	13	0.0	312.66	288.0	259.57
	 807	1	18	0.0	310.74	291.08	258.64
	 808	1	5	0.0	313.02	292.92	261.02
	 809	1	6	0.0	310.03	292.33	263.16
	 810	1	18	0.0	306.55	292.35	261.83
	 811	1	11	0.0	307.2	295.08	259.29
	 812	1	16	0.0	310.03	296.49	261.34
	 813	1	11	0.0	292.34	274.46	311.07
	 814	1	1	0.0	289.87	274.43	308.22
	 815	1	20	0.0	289.79	275.43	304.56
	 816	1	7	0.5	287.17	275.71	301.84
	 817	1	16	0.0	287.02	277.22	298.38
	 818	1	5	0.0	283.41	277.7	297.46
	 819	1	10	0.0	284.52	279.14	294.17
	 820	1	18	0.0	287.92	278.99	292.41
	 821	1	4	-1.0	288.39	282.8	292.18
	 822	1	13	0.0	291.86	284.05	292.24
	 823	1	8	0.0	291.75	286.24	295.29
	 824	1	16	0.0	294.15	289.02	294.61
	 825	1	2	0.0	293.01	290.86	297.7
	 826	1	7	0.5	290.58	290.47	300.58
	 827	1	1	0.0	288.69	293.04	302.64
	 828	1	19	0.0	285.89	293.0	305.14
	 829	1	12	0.0	283.56	294.58	307.62
	 830	1	9	1.0	284.76	294.42	311.19
	 831	1	3	-1.0	282.66	291.3	311.6
	 832	1	15	1.0	284.68	289.77	308.78
	 833	1	17	0.0	281.41	288.43	307.44
	 834	1	14	0.0	281.47	290.09	304.04
	 835	1	8	0.0	284.45	289.21	301.96
	 836	1	1	0.0	285.21	291.66	299.21
	 837	1	8	0.0	287.84	290.55	296.78
	 838	1	2	0.0	290.25	291.63	294.09